% Model:              6inch_1inch_ALUMINA_only_WGM_testing_LN_with_fieldnormplot.mph
% Version:            COMSOL 6.1.0.282
% Date:               May 20 2025, 17:48
% Table:              Table 1 - 
% Eigenfrequency (GHz)                            Frequency (GHz)                                   Quality factor (1)
5.174248834391213+0.05067597861738806i            5.174248834391213                                 51.05228330623509
5.181973988284765+0.023623669382107356i           5.181973988284765                                 109.67758446978627
5.183335490891878+0.0025116448325358067i          5.183335490891878                                 1031.860759878752
5.1838123805161525+0.047619827228007394i          5.1838123805161525                                54.42913889308817
5.184905306561785+0.023521955520981037i           5.184905306561785                                 110.21416357022208
5.185878176197307+0.0025649997537338493i          5.185878176197307                                 1010.8925290632613
5.188874969558223+0.009518416409727821i           5.188874969558223                                 272.570286179915
5.1898849910516995+0.002927358395449982i          5.1898849910516995                                886.4450965618665
5.19014636457959+0.009573158501446941i            5.19014636457959                                  271.0780545310684
5.1907248642657695+0.0033921723194919057i         5.1907248642657695                                765.1033578747054
5.191292456903575+0.003491820829509205i           5.191292456903575                                 743.3503479090651
5.191994512849378+0.003406988238334139i           5.191994512849378                                 761.9624943859544
5.195758960987035+0.004940407400393163i           5.195758960987035                                 525.843168376514
5.196061873928065+0.004440796669702434i           5.196061873928065                                 585.0371296414525
5.205972564978887+0.024422512880813645i           5.205972564978887                                 106.58142735731148
5.206519397722041+0.024510405714981226i           5.206519397722041                                 106.21038791168841
5.207911292265086+0.06633187769140059i            5.207911292265086                                 39.25647421360613
5.208580356828513+0.06581926471387188i            5.208580356828513                                 39.567293705506614
5.214368283587752+0.016454238040410536i           5.214368283587752                                 158.45061529988817
5.215955054213567+0.016402363725819692i           5.215955054213567                                 159.00010332056286
5.216184937547153+0.0026413332345987966i          5.216184937547153                                 987.4151563347631
5.2163994001168215+0.0027058081608440816i         5.2163994001168215                                963.9263188727979
5.217776404409815+0.002731247722931701i           5.217776404409815                                 955.2001381275466
5.218792317647018+0.0026432233635154566i          5.218792317647018                                 987.2022905219188
5.2374219489765865+0.07956481555268509i           5.2374219489765865                                32.912927106005455
5.239893317939212+0.08036948029600587i            5.239893317939212                                 32.598775671065404
5.242786856816356+0.022348342684345414i           5.242786856816356                                 117.29699447666042
5.24297819270527+0.1823818083083812i              5.24297819270527                                  14.37363254958015
5.243309980569914+0.18660136672492056i            5.243309980569914                                 14.04949511516539
5.245101753225938+0.022507279790210936i           5.245101753225938                                 116.52011709356327
5.249582882499776+0.0026383062711801586i          5.249582882499776                                 994.8774598014257
5.2564974274047795+0.1775437007438616i            5.2564974274047795                                14.803390391721678
5.257501870563934+0.05864667023816891i            5.257501870563934                                 44.82353259965818
5.258124104604322+0.0026361638836931794i          5.258124104604322                                 997.305997766319
5.259637744586454+0.17967533290797294i            5.259637744586454                                 14.636504798575672
5.261857121963814+0.059833363533037004i           5.261857121963814                                 43.970928686455
5.27494366477517+0.0026137608502843084i           5.27494366477517                                  1009.0715958580134
5.277665301869765+0.0026180893564886286i          5.277665301869765                                 1007.9230658781162
5.290388155283833+0.014339312474418914i           5.290388155283833                                 184.47147186177142
5.292100981906912+0.014628128299106659i           5.292100981906912                                 180.88783724402052
5.298806215267112+0.0026438702492613173i          5.298806215267112                                 1002.0927117636668
5.299803708055171+0.12508961880880828i            5.299803708055171                                 21.18402693414388
5.300142613375036+0.0027014103593124713i          5.300142613375036                                 980.9954631853789
5.302816491735042+0.126307188312692i              5.302816491735042                                 20.991744660672605
5.307106643891081+0.03427682764026168i            5.307106643891081                                 77.4153708095398
5.3095852424395815+0.03488489684411755i           5.3095852424395815                                76.10148979607642
5.3137958670891985+0.01407082602994185i           5.3137958670891985                                188.82316701882922
5.316815317828075+0.017558324124684693i           5.316815317828075                                 151.40440739311026
5.317067457621264+0.014181435867954902i           5.317067457621264                                 187.46576535440892
5.319554592287419+0.017849464347752i              5.319554592287419                                 149.0116030556787
5.326393501964587+0.0295901101894439i             5.326393501964587                                 90.00293455927627
5.328599240283421+0.02956747522986406i            5.328599240283421                                 90.10913510297577
5.3313146013645945+0.029223267524409294i          5.3313146013645945                                91.2169489074333
5.341367993764478+0.002664662549328824i           5.341367993764478                                 1002.2597411274202
5.342040437399651+0.0026640724473219546i          5.342040437399651                                 1002.607951365908
5.3528655498029085+0.0026043013736981794i         5.3528655498029085                                1027.6970253641753
5.353727348185354+0.002611609363474183i           5.353727348185354                                 1024.986244700734
5.357176791402562+0.00266234995134316i            5.357176791402562                                 1006.0992899712259
5.359338105366067+0.0026763907517048354i          5.359338105366067                                 1001.2248962436109
5.368713736447266+0.02400203645328524i            5.368713736447266                                 111.83871307954021
5.370147555105198+0.02396748834945639i            5.370147555105198                                 112.02983551730814
5.375724397772576+0.003414482273499782i           5.375724397772576                                 787.1946560528717
5.376369961009447+0.0035993376763879706i          5.376369961009447                                 746.8554556966124
5.381691285419568+0.009534904371583311i           5.381691285419568                                 282.2100293663415
5.383321819402806+0.009470843035895569i           5.383321819402806                                 284.20499627115584
5.383899164031933+0.02587455276766817i            5.383899164031933                                 104.03849705876739
5.391852051335908+0.06456486142755394i            5.391852051335908                                 41.75531343303451
5.391891525256359+0.002790267604184418i           5.391891525256359                                 966.1961306453942
5.394843935000103+0.06431101083578204i            5.394843935000103                                 41.94339246801624
5.3955082124838745+0.018675312132962862i          5.3955082124838745                                144.45563678051016
5.397244421126199+0.01845805103834306i            5.397244421126199                                 146.20298778875568
5.398828897442172+0.29473976911327077i            5.398828897442172                                 9.158636640187094
5.399655607962878+0.002775005337806675i           5.399655607962878                                 972.9090489300985
5.400292274234524+0.002693042616828243i           5.400292274234524                                 1002.6377303666236
5.4005670603441205+0.2950444091247859i            5.4005670603441205                                9.152125736536169
5.401479605248068+0.26319828630656156i            5.401479605248068                                 10.261236273697973
5.401557112003614+0.2601158488549687i             5.401557112003614                                 10.382983458680615
5.4018167563732+0.0026978543296568044i            5.4018167563732                                   1001.1320287000757
5.402142629265362+0.2604416813856732i             5.402142629265362                                 10.371117634710778
5.402333177498637+0.2628335926547272i             5.402333177498637                                 10.277097997506432
5.402568787398429+0.0027266993614470563i          5.402568787398429                                 990.6792189461054
5.402929099535029+0.30035699733085186i            5.402929099535029                                 8.99417883976172
5.403187461240132+0.0026937288583695532i          5.403187461240132                                 1002.9196970682764
5.403615562458933+0.30160372958255377i            5.403615562458933                                 8.958137835261544
5.4062629958712085+0.16168130391802726i           5.4062629958712085                                16.718887295132756
5.40862376573409+0.1199369981347959i              5.40862376573409                                  22.54777028709438
5.409354572447604+0.1634136590096927i             5.409354572447604                                 16.551109023654973
5.41043959311162+0.12201868499120108i             5.41043959311162                                  22.17053721527065
5.4106753914779055+0.0249204433549992i            5.4106753914779055                                108.55897133131239
5.411336318073504+0.02485526119714064i            5.411336318073504                                 108.85695940093412
5.417218507172715+0.04490762372057596i            5.417218507172715                                 60.31513202390434
5.418963329947022+0.005957970874261233i           5.418963329947022                                 454.765845982669
5.419327013496375+0.044459104486871716i           5.419327013496375                                 60.947325368380305
5.4211883585622855+0.006091410654917911i          5.4211883585622855                                444.98628196947124
5.432680736539901+0.0027740136635975104i          5.432680736539901                                 979.2094407881301
5.433424060323967+0.0027500784901292293i          5.433424060323967                                 987.8670881260272
5.440626017385704+0.004008528741038262i           5.440626017385704                                 678.6312845516121
5.442845696760479+0.00402852755585536i            5.442845696760479                                 675.5378511497885
5.444094416583712+0.06640031449616397i            5.444094416583712                                 40.994492706041505
5.444728218900333+0.06529556872013022i            5.444728218900333                                 41.69293817041031
5.44616594587463+0.10297255123010678i             5.44616594587463                                  26.444746103767013
5.454656657383836+0.30835429569592293i            5.454656657383836                                 8.844787852027899
5.455552372018679+0.30776368600806053i            5.455552372018679                                 8.863216519761519
5.456311577986745+0.3071038798592884i             5.456311577986745                                 8.88349502534251
5.456589587844854+0.30817150803806415i            5.456589587844854                                 8.853170143118613
5.457785509130126+0.05466219598262864i            5.457785509130126                                 49.92285263168518
5.460366546370906+0.02216512069840004i            5.460366546370906                                 123.174753268207
5.461170738243393+0.02256644972978875i            5.461170738243393                                 121.00199197560077
5.461250413367137+0.05481846620667864i            5.461250413367137                                 49.81214170401015
5.465683468550659+0.05112909114238593i            5.465683468550659                                 53.449839870316175
5.467548264517479+0.051384160923084815i           5.467548264517479                                 53.20266173755046
5.478735880487755+0.021171095479636377i           5.478735880487755                                 129.39188446241553
5.482991009808479+0.002757497731385788i           5.482991009808479                                 994.196830590498
5.484101892734565+0.0027399201472186096i          5.484101892734565                                 1000.7776865872664
5.484171087429949+0.09702664069974627i            5.484171087429949                                 28.26116130517693
5.485770289158256+0.00273712769535712i            5.485770289158256                                 1002.1034638726478
5.485825304840023+0.09883254265626251i            5.485825304840023                                 27.753132507779377
5.488127958948514+0.07357091331927737i            5.488127958948514                                 37.29821821792235
5.488434585352439+0.0027445450533046655i          5.488434585352439                                 999.8805774282878
5.491319638949369+0.051607847621286555i           5.491319638949369                                 53.20237029885721
5.4915888022506145+0.07340666292492906i           5.4915888022506145                                37.40524758540454
5.495001122322395+0.05145970389896249i            5.495001122322395                                 53.39130140654756
5.501214432126058+0.005090001472618008i           5.501214432126058                                 540.3941886579204
5.502695321966538+0.005095107489533809i           5.502695321966538                                 539.9979620910826
5.506447419298075+0.002769128227599087i           5.506447419298075                                 994.2564891753534
5.510688750409057+0.002810551922629943i           5.510688750409057                                 980.3570441161769
5.520224164883986+0.028465294776676784i           5.520224164883986                                 96.96411381284932
5.523182885844141+0.002727686134775451i           5.523182885844141                                 1012.4300621374133
5.524166290202034+0.018469474201787833i           5.524166290202034                                 149.54855319236154
5.524723262770442+0.028594301794747548i           5.524723262770442                                 96.60531847266981
5.525506874925223+0.01850851743454601i            5.525506874925223                                 149.26929978226957
5.528067315839999+0.0027157867488188936i          5.528067315839999                                 1017.7653525712534
5.542135774588533+0.09723515952957579i            5.542135774588533                                 28.498620259386705
5.546500912752934+0.0967769896406984i             5.546500912752934                                 28.656093423371058
5.563532096781505+0.0028392942797710354i          5.563532096781505                                 979.7385456695521
5.566308235654983+0.0028552958343717096i          5.566308235654983                                 974.7340658450223
5.5670935007340905+0.030423167069285807i          5.5670935007340905                                91.49431234518707
5.567734001524473+0.10159476100164393i            5.567734001524473                                 27.40167872157492
5.569758465169127+0.030841959662285916i           5.569758465169127                                 90.29514541483441
5.5730808779440695+0.002808491583289388i          5.5730808779440695                                992.1840092211908
5.574201336631387+0.0027909805359370337i          5.574201336631387                                 998.6098550056574
5.574700349093807+0.010458241161286231i           5.574700349093807                                 266.52188752970915
5.5755560409197935+0.010292707065149205i          5.5755560409197935                                270.8498359871941
5.578928033587387+0.0033654468892612586i          5.578928033587387                                 828.8539705364367
5.581925182879013+0.005774088977641627i           5.581925182879013                                 483.3598169766081
5.583826072116033+0.0063805842744897754i          5.583826072116033                                 437.5638524547617
5.584382004340063+0.004372686320777492i           5.584382004340063                                 638.5527790782766
5.586219087527707+0.004751314023575991i           5.586219087527707                                 587.8604381660442
5.588895323320259+0.02110145769171855i            5.588895323320259                                 132.42912894860507
5.5927162186141866+0.020947830876347148i          5.5927162186141866                                133.49153551094153
5.593511327668726+0.005574385653471726i           5.593511327668726                                 501.7154961448613
5.596394098215975+0.0030785494441813903i          5.596394098215975                                 908.933606506375
5.597035569850106+0.0055574870133412385i          5.597035569850106                                 503.558133056715
5.605012362755803+0.08322928279060375i            5.605012362755803                                 33.67211740162073
5.607381175669056+0.08408801284543188i            5.607381175669056                                 33.34233374010383
5.609463350859982+0.027898201369120527i           5.609463350859982                                 100.53449820368863
5.611013512884874+0.0028535783866831654i          5.611013512884874                                 983.1539128327208
5.611314173439439+0.0028411471926896256i          5.611314173439439                                 987.5085296315434
5.612048145601246+0.02832164762659393i            5.612048145601246                                 99.0770067404474
5.614525602532627+0.02281093751501836i            5.614525602532627                                 123.06652453096483
5.616401287622271+0.022318649328266427i           5.616401287622271                                 125.82305508311237
5.620003092860018+0.022024703316665593i           5.620003092860018                                 127.58408165724279
5.620401098593169+0.021971799165347104i           5.620401098593169                                 127.90033843603949
5.621064218277082+0.21014969950133713i            5.621064218277082                                 13.37395254814846
5.624593863061561+0.25928719835523023i            5.624593863061561                                 10.846262173259554
5.624608057490516+0.26210145509073135i            5.624608057490516                                 10.729829896486939
5.625333787252901+0.2602166325813723i             5.625333787252901                                 10.808943554931684
5.625784942968902+0.2571081653482475i             5.625784942968902                                 10.940502288888604
5.62739240202578+0.20889192196136547i             5.62739240202578                                  13.469626659537763
5.633497477979069+0.002889141317563133i           5.633497477979069                                 974.9432199340604
5.635157637983718+0.2925179732845584i             5.635157637983718                                 9.632156230793202
5.63558695721351+0.0028972750705143963i           5.63558695721351                                  972.566777412153
5.638675326681382+0.2895166220969703i             5.638675326681382                                 9.738085650903958
5.639230207532964+0.299420470976194i              5.639230207532964                                 9.416908251375576
5.641964874873881+0.2970794597277567i             5.641964874873881                                 9.495716869897656
5.645948556859736+0.0033448222872409683i          5.645948556859736                                 843.9833378288222
5.647216690845475+0.0038307017801978717i          5.647216690845475                                 737.0994944108875
5.648653493653984+0.09939494595116904i            5.648653493653984                                 28.41519475461592
5.649990670020832+0.0034480515620331337i          5.649990670020832                                 819.3019402948446
5.650928936791343+0.09902402743148059i            5.650928936791343                                 28.53312010916486
5.651328307891913+0.0037929147266665512i          5.651328307891913                                 744.9848882917875
5.670158624893173+0.06928542911815821i            5.670158624893173                                 40.918838903511585
5.6752178038644425+0.0706075819931643i            5.6752178038644425                                40.18844466599829
5.676784026668529+0.02037809366611984i            5.676784026668529                                 139.28643472933445
5.676884323743549+0.02026924819403708i            5.676884323743549                                 140.03687431815072
5.682003564044679+0.0032593754074395666i          5.682003564044679                                 871.6399392158745
5.683545808703928+0.0032254484647919373i          5.683545808703928                                 881.0473753873098
5.685761790918349+0.040485230375563015i           5.685761790918349                                 70.22019805956556
5.687427656792295+0.0034248016685484565i          5.687427656792295                                 830.3294916348856
5.689028093020869+0.003360156364315401i           5.689028093020869                                 846.5421659298216
5.689188084757364+0.040909719880943676i           5.689188084757364                                 69.53345196831168
5.69159766251633+0.0029615901844566713i           5.69159766251633                                  960.9023038345363
5.696876168511781+0.0028587096242436456i          5.696876168511781                                 996.4069313299099
5.699467807484505+0.053955263639833856i           5.699467807484505                                 52.81660604542693
5.70036716767426+0.037882128075918335i            5.70036716767426                                  75.23821201715938
5.700871126334923+0.0372998160011048i             5.700871126334923                                 76.41956097271452
5.701694803080926+0.0029518979711945443i          5.701694803080926                                 965.7675940563797
5.701700539607004+0.055557795856650966i           5.701700539607004                                 51.31323562869925
5.704961077191394+0.0028827409105678064i          5.704961077191394                                 989.5029165260123
5.709379475695928+0.018306303912656557i           5.709379475695928                                 155.94025705398113
5.71186552247691+0.018280121454815126i            5.71186552247691                                  156.23160755784693
5.7126591439456815+0.044241808722263784i          5.7126591439456815                                64.56177209896602
5.714017649058579+0.045333841718060174i           5.714017649058579                                 63.02154673538531
5.716184702374284+0.002924623396008168i           5.716184702374284                                 977.251414690919
5.7190651703956235+0.00294943994369971i           5.7190651703956235                                969.517142163227
5.719329881508323+0.019562453623348297i           5.719329881508323                                 146.18130198867675
5.719757497985099+0.054832892079954156i           5.719757497985099                                 52.156263157202055
5.720009829691772+0.05494374963796577i            5.720009829691772                                 52.0533260596696
5.720894155462049+0.019973845959901957i           5.720894155462049                                 143.2096294060468
5.720961023170214+0.0029518931743128256i          5.720961023170214                                 969.0325302002169
5.722259366180413+0.0029834124730557456i          5.722259366180413                                 959.0124426072766
5.726749978995055+0.020726023433310536i           5.726749978995055                                 138.15361150733605
5.7276865100509955+0.020999830543291385i          5.7276865100509955                                136.3745887911644
5.748305228928476+0.0623308206784111i             5.748305228928476                                 46.11125897560546
5.7487958059995+0.04516123879625666i              5.7487958059995                                   63.647454755780636
5.751232396247078+0.04508927746776387i            5.751232396247078                                 63.776054078032885
5.753240030012558+0.06348924544194937i            5.753240030012558                                 45.30877623418098
5.771271575312885+0.06856336542988485i            5.771271575312885                                 42.087137490463306
5.775481023428171+0.06950510723513434i            5.775481023428171                                 41.547170079817576
5.7755447078517825+0.0030132919410987397i         5.7755447078517825                                958.3446975512501
5.7781992526084185+0.0031143227426088274i         5.7781992526084185                                927.6815105823131
5.7812034272948045+0.0029485480126132794i         5.7812034272948045                                980.3475138549569
5.782917883491545+0.003884250124525762i           5.782917883491545                                 744.4059597214527
5.784028467640833+0.0031905907956992227i          5.784028467640833                                 906.4196630037063
5.784228347660824+0.004288455644166187i           5.784228347660824                                 674.3952634241905
5.786033412236827+0.0032400077600335596i          5.786033412236827                                 892.9042522072378
5.786466662734942+0.0031075719795396065i          5.786466662734942                                 931.0269723168602
5.78993976864205+0.003412630626049951i            5.78993976864205                                  848.3103510302527
5.792414248014351+0.0029472303467508072i          5.792414248014351                                 982.6877384050138
5.796906162099033+0.05615791241605238i            5.796906162099033                                 51.61255033085974
5.800710015789693+0.05628494631981233i            5.800710015789693                                 51.529852963081176
5.813346888727475+0.019066794459616457i           5.813346888727475                                 152.44688615698263
5.815764298925083+0.05435545046488652i            5.815764298925083                                 53.4975264594859
5.815970633007222+0.002955971555793247i           5.815970633007222                                 983.7663392952511
5.817419972505843+0.018808202813603157i           5.817419972505843                                 154.65113892483006
5.820690509128483+0.002970896195987447i           5.820690509128483                                 979.6186277039949
5.825930052344998+0.028143502800135552i           5.825930052344998                                 103.5039968855074
5.82605563920686+0.017354974673208685i            5.82605563920686                                  167.84973037732777
5.826696124148529+0.01694226710165453i            5.826696124148529                                 171.95739180559582
5.827448842770024+0.02751362002923678i            5.827448842770024                                 105.90116525156641
