% Model:              6inch_1inch_ALUMINA_only_WGM_Qtesting_5to11GHz.mph
% Version:            COMSOL 6.1.0.282
% Date:               May 22 2025, 13:57
% Dimension:          1
% Nodes:              68
% Expressions:        252
% Description:        Line graph
% Arc length (m)          Electric field norm      Electric field norm      Electric field norm      Electric field norm      Electric field norm      Electric field norm      Electric field norm      Electric field norm      Electric field norm      Electric field norm      Electric field norm      Electric field norm      Electric field norm      Electric field norm      Electric field norm      Electric field norm      Electric field norm      Electric field norm      Electric field norm      Electric field norm      Electric field norm      Electric field norm      Electric field norm      Electric field norm      Electric field norm      Electric field norm      Electric field norm      Electric field norm      Electric field norm      Electric field norm      Electric field norm      Electric field norm      Electric field norm      Electric field norm      Electric field norm      Electric field norm      Electric field norm      Electric field norm      Electric field norm      Electric field norm      Electric field norm      Electric field norm      Electric field norm      Electric field norm      Electric field norm      Electric field norm      Electric field norm      Electric field norm      Electric field norm      Electric field norm      Electric field norm      Electric field norm      Electric field norm      Electric field norm      Electric field norm      Electric field norm      Electric field norm      Electric field norm      Electric field norm      Electric field norm      Electric field norm      Electric field norm      Electric field norm      Electric field norm      Electric field norm      Electric field norm      Electric field norm      Electric field norm      Electric field norm      Electric field norm      Electric field norm      Electric field norm      Electric field norm      Electric field norm      Electric field norm      Electric field norm      Electric field norm      Electric field norm      Electric field norm      Electric field norm      Electric field norm      Electric field norm      Electric field norm      Electric field norm      Electric field norm      Electric field norm      Electric field norm      Electric field norm      Electric field norm      Electric field norm      Electric field norm      Electric field norm      Electric field norm      Electric field norm      Electric field norm      Electric field norm      Electric field norm      Electric field norm      Electric field norm      Electric field norm      Electric field norm      Electric field norm      Electric field norm      Electric field norm      Electric field norm      Electric field norm      Electric field norm      Electric field norm      Electric field norm      Electric field norm      Electric field norm      Electric field norm      Electric field norm      Electric field norm      Electric field norm      Electric field norm      Electric field norm      Electric field norm      Electric field norm      Electric field norm      Electric field norm      Electric field norm      Electric field norm      Electric field norm      Electric field norm      Electric field norm      Electric field norm      Electric field norm      Electric field norm      Electric field norm      Electric field norm      Electric field norm      Electric field norm      Electric field norm      Electric field norm      Electric field norm      Electric field norm      Electric field norm      Electric field norm      Electric field norm      Electric field norm      Electric field norm      Electric field norm      Electric field norm      Electric field norm      Electric field norm      Electric field norm      Electric field norm      Electric field norm      Electric field norm      Electric field norm      Electric field norm      Electric field norm      Electric field norm      Electric field norm      Electric field norm      Electric field norm      Electric field norm      Electric field norm      Electric field norm      Electric field norm      Electric field norm      Electric field norm      Electric field norm      Electric field norm      Electric field norm      Electric field norm      Electric field norm      Electric field norm      Electric field norm      Electric field norm      Electric field norm      Electric field norm      Electric field norm      Electric field norm      Electric field norm      Electric field norm      Electric field norm      Electric field norm      Electric field norm      Electric field norm      Electric field norm      Electric field norm      Electric field norm      Electric field norm      Electric field norm      Electric field norm      Electric field norm      Electric field norm      Electric field norm      Electric field norm      Electric field norm      Electric field norm      Electric field norm      Electric field norm      Electric field norm      Electric field norm      Electric field norm      Electric field norm      Electric field norm      Electric field norm      Electric field norm      Electric field norm      Electric field norm      Electric field norm      Electric field norm      Electric field norm      Electric field norm      Electric field norm      Electric field norm      Electric field norm      Electric field norm      Electric field norm      Electric field norm      Electric field norm      Electric field norm      Electric field norm      Electric field norm      Electric field norm      Electric field norm      Electric field norm      Electric field norm      Electric field norm      Electric field norm      Electric field norm      Electric field norm      Electric field norm      Electric field norm      Electric field norm      Electric field norm      Electric field norm      Electric field norm      Electric field norm      Electric field norm      Electric field norm      Electric field norm      Electric field norm      Electric field norm      Electric field norm      Electric field norm      Electric field norm      Electric field norm      Electric field norm      Electric field norm      Electric field norm      Electric field norm      Electric field norm      Electric field norm      Electric field norm      Electric field norm      Electric field norm      Electric field norm
0                         157.69939288550043       135.83002530574075       200.79125530791651       524.2794335849455        201.16044257034486       304.74050768874184       198.75978979453757       414.8236133158257        424.70557809900606       69.94234882540137        252.90264185380255       316.9046267772279        143.6448914441646        183.34769454348134       318.94665971861747       110.35861772129006       421.75253680555215       235.52778830377386       288.5746232819755        714.2565756987741        413.93892146993744       457.7080252374363        424.2744456112907        139.7869760417104        410.653455408863         318.51103306206176       301.648694236226         259.0969665022998        161.5088097402901        170.70979123378063       2.6816625075416254       1.7166952216400937       195.6839625696748        3.724180720631642        1.8850972367560561       200.47388620414733       226.90019608568946       77.6880314558188         423.2347868601609        253.42604676864673       51.31672578434819        563.9125823825938        155.63863867963926       363.7314747719513        419.2321662180956        291.79084797961434       82.5755149729963         206.39664413066168       176.55961226063454       473.63083647929665       159.18660540273405       167.54618038620328       272.89580102996706       228.87282820259057       104.19713810463632       1.670605978755463        1.8122210704226513       2.1667650840397874       1.943430829182073        457.19419964304325       351.615211270978         319.8666095602929        248.6636685386788        416.6465635145936        368.71716581216714       360.8873203372447        411.2568816647077        421.97584538844353       706.1022289354269        216.3095561186693        116.41894796648572       371.2425036414389        423.0967357710182        175.01277922959537       120.4068470024253        171.7165255459121        184.75815587504036       491.93026911778776       386.6644214054827        508.353253701969         80.07473761743752        37.052910774429144       43.87263111068927        368.68744704575516       154.43567408873187       130.31926934728165       158.97960854355722       112.37159177802614       44.62753426465789        62.785349542119505       4.834022279867247        99.9949823468765         159.87381236979428       5.241662616423895        8.412330902368195        275.0190295753558        9.063528015776848        298.6156858129439        246.85728439015995       460.81382212265413       134.41023732612797       177.9330253571359        307.86625870467896       2.440252146367949        2.513095484864353        3.720266908008405        3.762058050705429        11.470776687104673       178.41133035121436       10.17153128579934        186.70063087995928       13.985322855895362       7.007384741952471        62.94316749592156        62.5666486025167         473.9642549810594        384.94411851413787       56.3205919926983         41.87546733436843        260.4541978947196        296.2765353432622        499.70108745687634       276.07740291103227       281.7213385875225        311.57189115010306       106.3134544942504        3.5316332126204077       4.719471154479223        118.19986376739365       6.315473922562564        8.108306851190093        122.9297884558924        103.95450237117724       450.5495677072708        484.38255423078454       552.8563936654809        578.4787735427191        456.6524898430392        389.9591334826279        126.35301402000651       323.8950523871256        552.884421909212         294.0865688979863        9.533467974068497        9.491695731329678        8.067520797182825        9.700461428587348        548.6194815292357        165.8715058924987        85.34544013254799        213.9280877081248        202.33261812968183       208.5433726422596        187.59417005087974       114.96641896009568       35.078678536143805       341.70684899020483       413.4162483839973        405.16444964469605       435.5571459447813        521.5304343947661        229.23783624691217       95.89973523037183        75.14477319289831        222.9095809379123        207.5700292455947        402.84853157422424       363.1167428467745        336.9728249075251        182.34186210649503       328.9700823742344        180.86057788130893       383.0357832892895        90.9716619284504         99.20032540760897        177.0100108542732        5.710499707741281        28.9301748233463         10.317228905552865       100.22852957718258       43.527955204744124       14.644214877323938       111.73518858194318       110.01172477537976       6.735963552240393        4.101399677752534        3.686196400937177        2.4537534666753427       50.260489206038116       340.1547314069171        754.3151053250651        83.85143136551736        266.44566243618954       379.04516260720624       109.38966815026153       199.0302267323527        429.7957813061457        180.3936276619209        574.5589275711835        401.0222100662207        375.89941257111866       478.42395653324024       140.10520983579022       230.87771843534932       543.5686074525823        40.850972939978          161.50602195621926       466.6185339766092        378.39530320075943       439.656475173075         423.23162802945944       480.55027654726433       240.17534409325478       150.35622562517906       40.0279723456486         534.3613043350105        99.78336342066459        101.17087720573589       44.931402575427484       218.80559467908284       103.22356975633033       82.24132410779124        373.60797317113224       93.15858269266973        102.23396250069898       281.8683735881168        460.83568896707516       164.54001242323366       371.18739681081905       383.5148771619068        97.90205584225184        384.7472131055339        100.07296521177147       104.10961744024078       75.49328118146985        198.25892791397155       513.4724028050798        209.5010002963896        208.01982417296966       285.1667978804691        435.5619225188173        65.0472483960156         152.37177777386148       258.8687493144515        753.8678644488137        361.38065862464816       213.1204800013291        269.7412176298513        290.9489305448114        369.9702795722213        425.42598737434696       642.3017728051024
3.4674882840211516E-4     165.54352708446197       142.72659860188736       202.06095755185294       517.2402990234899        197.105356236854         301.4604136268907        216.1505657026629        433.32790607087134       435.6272162223702        89.29586820012955        254.59719262751406       319.5301779450523        153.93116739181514       194.5144655782185        320.71251525982774       120.77258144829362       415.77156480205474       232.134342778524         308.5056924326095        699.3336323759141        437.97041306704244       479.2793231487442        427.42099981553224       147.8903237033692        408.4395201798755        324.1395900897708        321.5147443708035        276.41226942618266       156.2258048175415        182.12997938650014       2.7464095505441284       1.7143241313020563       200.70463269589638       3.7984445097702477       1.9050587026587333       205.73895554350116       239.99103574736856       82.77768206375144        428.87217513442863       256.7478575162008        50.72770967374081        588.1759914080877        163.98944066320203       382.7209352357712        432.0238102425572        302.0455538339635        91.90377391625748        212.7420324707943        184.37277426490863       480.7606283436995        161.46792770617674       173.9200337767298        279.4479535333542        236.79053154366574       107.32057950705197       1.7081336363535229       1.8697440374517782       2.2310298758514913       1.9333838652808077       453.68217374309904       355.09406968161653       319.6253490063733        248.9078799335118        416.64350355933703       364.8426564137755        379.07822827110334       412.9898733607116        423.57044445998685       691.8812105986098        224.3724624818984        120.90229788132373       396.88478162700204       438.8611162263842        183.04385265737633       127.06469004586062       170.13231641166038       202.19360168815572       512.0392694453909        413.96017773536926       502.925477979484         81.06639548547093        37.067830457784176       43.6582039481629         364.7240963378509        161.93635041633686       143.3174866161756        170.2152617375507        120.86735312509245       45.64079292759086        64.04689432495819        4.751436628505353        105.14283764991522       167.95930043217203       5.184713156240256        8.650678142015755        294.27870093215654       9.299965094074834        318.6342908104485        250.11216141450407       468.59516567882343       141.47601996268443       184.17801483750773       315.90693584900305       2.7045864383314893       2.636332831108665        3.563320674893949        3.8747829980551183       11.091816923474969       168.18744406068438       9.522689004244485        201.89744966504827       14.402759151987858       6.856713934908263        63.20969322639861        59.550096369810205       494.44476723487645       404.4466626861013        52.45973051667461        38.81748016740647        265.95061802729856       297.519806431061         510.36179185528664       275.1680776293164        295.0668453692593        331.83738919913594       113.76737219391401       3.4881003384760683       4.491207198985431        126.87589870710157       6.473024994083465        8.30238308842966         129.49937310409715       108.76541214490013       454.413729330992         487.4035684945925        557.3842254743944        577.0400704346147        466.51418975124096       398.6763129356266        135.01785444402262       328.1824748023312        551.6829673115927        284.9406896742283        10.101580725336436       9.898877395458914        8.325196676893798        10.402049107338941       554.0638676987556        174.04181203919748       88.71969637659396        222.0780751044796        210.17329871712997       218.1110119659613        194.029153727048         118.69039209214738       36.193335747159104       362.3544574997976        434.5095697938966        428.85726997490895       458.79556758312685       519.6736333526896        229.79976632852393       103.18454700595466       79.83135455155019        232.44214170393124       212.01643666373863       411.27116905879967       368.7513004586189        361.9899830712987        190.5371441903846        327.76018645840327       189.42244218935693       381.2536340233181        94.7734566021521         114.14766681978716       186.25453627975057       5.743463543082364        29.90220148247005        10.877300053745568       109.76386338673193       46.8652676714406         15.25742011726926        117.97491122587148       115.10355469049328       7.007597423508834        4.039977694946396        3.717858470613474        2.4959784726166605       52.1037665514067         338.64906942374          744.6743956724607        90.3647668457129         266.40308927784116       412.24195846681187       113.58508430193449       188.19682805699847       449.9939522008994        197.07000785773909       584.5177947167685        413.87539016946624       377.1237310471959        496.9804269172697        151.01777217241408       235.95345589361548       557.5799479366386        42.35020033135277        170.44608415128906       469.952062011656         384.5802775129314        466.53658493003655       418.9193380574281        485.088719758161         245.98913713604122       158.7637176481076        42.40187681665391        550.1925024445381        91.69909488216655        99.31153428661892        46.15027544708028        226.56563603773975       106.15383326906567       80.13479762232264        388.54910300287196       90.00293053480424        104.3994031841514        307.5356736353025        481.64297349338415       157.36231751192514       385.4338740214951        403.3327545328899        102.83044901674471       404.8345189289484        105.46172821021504       106.12635165874947       76.67087254464798        207.38449093518287       515.14189237081          217.33318628414486       211.61396811150516       284.999565158663         447.0725105263045        62.53203390392684        154.4746919134901        272.7946001506209        747.0915989002125        399.3035447495038        230.06378340561983       292.23870583069527       291.65391608199536       370.43256023694346       428.6424840336894        659.0784560553797
3.5869766057380903E-4     165.79577449425497       142.9489660903483        202.08886518136399       516.9595763474011        196.95870755227597       301.33617822350004       216.7553040633122        433.96248016315553       435.98614015150133       89.9612344010078         254.63889591817656       319.5962494344173        154.28015249985503       194.89064498618671       320.7557485323215        121.13727259750628       415.53365707073226       231.99965520337534       309.2018355775749        698.7534557711184        438.7877185684872        479.9861681872235        427.4937722646364        148.1603735831854        408.3331301462989        324.3092824733305        322.19745199622463       277.0130259880744        156.04463538705485       182.51601435186726       2.7491137943687534       1.7146531077032294       200.86476757199088       3.800863693096868        1.9056573709579836       205.90702822612585       240.42768932454098       82.95028704429436        429.02791113165705       256.8418305062855        50.70138096392615        588.9948077574716        164.26729694654517       383.35575045538616       432.4423018030941        302.38140191314915       92.22938806824641        212.94788135538099       184.63384767376022       480.9611455299403        161.53178435916044       174.13069830365447       279.65876522737915       237.04479662877173       107.42255944738552       1.709603963599505        1.8716612441319498       2.2332353272009855       1.9329790812961876       453.52439274782705       355.18344563779067       319.59036402831583       248.90240691837548       416.61818878268895       364.6897273965613        379.70937748574966       413.0113144046844        423.5900903435638        691.3190337103364        224.63294046004108       121.04772993536332       397.807355060598         439.35865153170937       183.30049398271458       127.28251404082216       170.07379740639342       202.80187966886774       512.6884002941653        414.8987764851186        502.69401929621165       81.09418814138624        37.078436068600006       43.65711241887436        364.5548386351647        162.19044829070356       143.7682565993077        170.60224164245588       121.16178498900982       45.676425700131425       64.08853239507481        4.748960730923956        105.3082882546042        168.21760993320055       5.183546884125534        8.65846421547177         294.9418468125571        9.308005506675029        319.3280009408957        250.20428434891318       468.81570892566816       141.70172677141417       184.38232986687683       316.15816686238264       2.7154296096636394       2.6403298089272442       3.5585999369699857       3.878954816087902        11.079697679823038       167.82553963386982       9.501740516047034        202.41292240214855       14.416387534457398       6.851434548760836        63.22585611977439        59.487013021213684       495.1334191438661        405.1022875985413        52.33476255411494        38.71892538343652        266.11336316732286       297.5373772818607        510.6747894111314        275.11748924864196       295.5110671093391        332.5236105648235        114.02187716181643       3.488005982058132        4.484303383876569        127.17435512481818       6.478387275718321        8.308889427987877        129.71927257534784       108.92665515444834       454.5060800359193        487.457016157824         557.5136518441365        576.9476746803018        466.830792781496         398.93354616572213       135.30110482956695       328.2981718382527        551.591703784746         284.5880724713733        10.120779970206103       9.912649499512128        8.333657919376382        10.425608870898637       554.2189803983016        174.31788869578895       88.83183103319845        222.34980669250447       210.43490388235566       218.42902355234344       194.2426215931022        118.81265061007272       36.2353417256838         363.0672294264258        435.22730641988437       429.6536566288678        459.57122792071453       519.5578840680549        229.79723980724532       103.43148818275897       79.98968266976844        232.77601492070997       212.17236500280404       411.51854300553236       368.90838405363326       362.85883366234464       190.8133474404324        327.68465119075984       189.69490015163095       381.15244021831097       94.89969619266047        114.67996671344697       186.56003494843182       5.744311640337752        29.934372478003915       10.89642922862029        110.08793441597612       46.97911733726027        15.278404078415848       118.21641340304897       115.30461918158665       7.016521537672311        4.03812498069212         3.718844671180439        2.4973796039899963       52.16707588052108        338.5719034297535        744.2528719790421        90.58447568342169        266.37449809075355       413.39156566751956       113.7237863350795        187.81296928278843       450.66475943882847       197.64027771400197       584.7994151553708        414.29470822857          377.12956414783184       497.5837270839114        151.39357654500236       236.10667432497493       557.9975006090823        42.40457560588316        170.73081163428915       470.02005441486995       384.7562306030183        467.4362361464809        418.72885797230765       485.21428798710815       246.16723013696284       159.03306788157334       42.47922908245136        550.6723915893741        91.4709497171469         99.26398528639257        46.188925933759606       226.82019807611692       106.27185463409991       80.07518218533005        389.039498845587         89.90608639191083        104.49308219968475       308.4527052221385        482.3203147625135        157.09583654433519       385.89638276947505       403.99065134329425       102.9972152539827        405.5103118345799        105.64323198802208       106.20030922546775       76.73921853043204        207.68939702401448       515.1434678203494        217.5958700907715        211.71456914179183       284.96971707473136       447.41551343924823       62.448176420645275       154.54709831476188       273.28044234822215       746.7629487233506        400.61871932307344       230.65590688278243       293.019950783488         291.64429434490665       370.4061856853484        428.70747622353457       659.5836701381963