% Model:              6inch_1inch_ALUMINA_only_WGM_Qtesting_5to11GHz.mph
% Version:            COMSOL 6.1.0.282
% Date:               May 22 2025, 14:03
% Dimension:          1
% Nodes:              68
% Expressions:        252
% Description:        Line graph
% Arc length (m)          Electric field norm      Electric field norm      Electric field norm      Electric field norm      Electric field norm      Electric field norm      Electric field norm      Electric field norm      Electric field norm      Electric field norm      Electric field norm      Electric field norm      Electric field norm      Electric field norm      Electric field norm      Electric field norm      Electric field norm      Electric field norm      Electric field norm      Electric field norm      Electric field norm      Electric field norm      Electric field norm      Electric field norm      Electric field norm      Electric field norm      Electric field norm      Electric field norm      Electric field norm      Electric field norm      Electric field norm      Electric field norm      Electric field norm      Electric field norm      Electric field norm      Electric field norm      Electric field norm      Electric field norm      Electric field norm      Electric field norm      Electric field norm      Electric field norm      Electric field norm      Electric field norm      Electric field norm      Electric field norm      Electric field norm      Electric field norm      Electric field norm      Electric field norm      Electric field norm      Electric field norm      Electric field norm      Electric field norm      Electric field norm      Electric field norm      Electric field norm      Electric field norm      Electric field norm      Electric field norm      Electric field norm      Electric field norm      Electric field norm      Electric field norm      Electric field norm      Electric field norm      Electric field norm      Electric field norm      Electric field norm      Electric field norm      Electric field norm      Electric field norm      Electric field norm      Electric field norm      Electric field norm      Electric field norm      Electric field norm      Electric field norm      Electric field norm      Electric field norm      Electric field norm      Electric field norm      Electric field norm      Electric field norm      Electric field norm      Electric field norm      Electric field norm      Electric field norm      Electric field norm      Electric field norm      Electric field norm      Electric field norm      Electric field norm      Electric field norm      Electric field norm      Electric field norm      Electric field norm      Electric field norm      Electric field norm      Electric field norm      Electric field norm      Electric field norm      Electric field norm      Electric field norm      Electric field norm      Electric field norm      Electric field norm      Electric field norm      Electric field norm      Electric field norm      Electric field norm      Electric field norm      Electric field norm      Electric field norm      Electric field norm      Electric field norm      Electric field norm      Electric field norm      Electric field norm      Electric field norm      Electric field norm      Electric field norm      Electric field norm      Electric field norm      Electric field norm      Electric field norm      Electric field norm      Electric field norm      Electric field norm      Electric field norm      Electric field norm      Electric field norm      Electric field norm      Electric field norm      Electric field norm      Electric field norm      Electric field norm      Electric field norm      Electric field norm      Electric field norm      Electric field norm      Electric field norm      Electric field norm      Electric field norm      Electric field norm      Electric field norm      Electric field norm      Electric field norm      Electric field norm      Electric field norm      Electric field norm      Electric field norm      Electric field norm      Electric field norm      Electric field norm      Electric field norm      Electric field norm      Electric field norm      Electric field norm      Electric field norm      Electric field norm      Electric field norm      Electric field norm      Electric field norm      Electric field norm      Electric field norm      Electric field norm      Electric field norm      Electric field norm      Electric field norm      Electric field norm      Electric field norm      Electric field norm      Electric field norm      Electric field norm      Electric field norm      Electric field norm      Electric field norm      Electric field norm      Electric field norm      Electric field norm      Electric field norm      Electric field norm      Electric field norm      Electric field norm      Electric field norm      Electric field norm      Electric field norm      Electric field norm      Electric field norm      Electric field norm      Electric field norm      Electric field norm      Electric field norm      Electric field norm      Electric field norm      Electric field norm      Electric field norm      Electric field norm      Electric field norm      Electric field norm      Electric field norm      Electric field norm      Electric field norm      Electric field norm      Electric field norm      Electric field norm      Electric field norm      Electric field norm      Electric field norm      Electric field norm      Electric field norm      Electric field norm      Electric field norm      Electric field norm      Electric field norm      Electric field norm      Electric field norm      Electric field norm      Electric field norm      Electric field norm      Electric field norm      Electric field norm      Electric field norm      Electric field norm      Electric field norm      Electric field norm      Electric field norm      Electric field norm      Electric field norm      Electric field norm      Electric field norm      Electric field norm      Electric field norm      Electric field norm      Electric field norm      Electric field norm      Electric field norm      Electric field norm      Electric field norm      Electric field norm      Electric field norm      Electric field norm      Electric field norm      Electric field norm      Electric field norm      Electric field norm      Electric field norm      Electric field norm      Electric field norm      Electric field norm      Electric field norm
0                         100.2285295776654        43.527955205506544       111.73518858260537       110.01172477453756       340.15473140651426       754.3151053248861        83.85143136672436        266.445662435596         379.0451626059691        199.03022673300592       429.7957813025512        180.39362766160366       574.5589275728888        401.0222100715407        375.89941257122314       478.4239565332082        140.10520984035574       230.87771844933184       543.5686074483243        40.8509729363007         161.50602195504098       466.618533975962         378.39530320165346       439.65647517566157       423.2316280267388        480.5502765482008        240.17534409513254       150.35622562421588       40.027972343513035       534.3613043346728        99.78336342037898        101.17087720624032       44.931402576718995       218.80559467957883       103.22356975681603       82.24132410813772        373.6079731717375        93.1585826949035         102.23396250085796       281.8683735886263        460.8356889668176        164.54001242319296       371.1873968095578        383.51487715903176       97.90205584479848        384.74721310618827       100.07296521232142       104.10961743934878       75.49328118117917        198.25892791587168       513.4724027994548        209.50100029833706       208.01982417340366       285.166797882068         435.5619225202895        65.04724839410267        152.37177777525238       258.8687493137872        753.8678644482175        361.38065862785146       213.1204800041192        269.74121762899614       290.9489305442609        369.97027956676584       425.42598737356775       642.3017728046232        248.02503256778806       407.2767588063775        375.14262749823075       53.91115663042585        65.38350217164798        51.394023683690634       396.1014049446532        440.3173421369982        6.955680648971863        143.39834781551497       271.851969151314         6.268634895496989        4.234134516852101        6.123159680699783        237.05602214334507       5.63971574720255         4.917733225235825        785.0563172516436        6.5454751052341065       450.68769601682794       8.314671524810214        107.25028854674254       163.3458091023548        134.98317847727816       212.5406202959266        46.8651736378623         458.12874917162225       150.01867738313697       184.76317011002806       144.21483088411864       195.4239566007485        310.2550003433496        289.50047532297094       80.81081319030747        335.33591473245474       113.99306362763834       122.68473972967067       4.945138323598689        119.48588163269326       6.614488097888617        4.335671911295311        5.015812205276557        5.499018282066744        5.434637150399763        4.203228823710147        8.112582320907242        63.53576108594487        303.46485243335536       431.14024362756805       55.34002473416904        6.921309933713031        6.742433516244867        55.08244568967155        87.6910228204254         357.2155967709511        398.1072616637673        162.52116495443818       131.78928246987607       514.1116870886185        136.02434328975298       155.86574039206474       230.6201626916297        86.56565401983288        51.399074036488116       13.781533089838915       484.38712581582223       502.00621846333183       380.84541581187085       234.30630668634802       357.0312640571253        441.35106849147434       309.4943623491197        315.6454767107148        433.18003125394745       682.7042160403325        75.06374745554596        192.25760776027457       327.92148008853604       188.10189298468154       52.13076337171258        127.21805942165004       36.0108094115411         458.9867540198885        166.03866396008257       176.97871273761734       179.46976240860317       361.7657620807118        406.7708961888537        487.01488131644186       732.5568009294144        290.19347492850267       500.58181653591646       125.70671788933413       290.0258398818717        342.2408008839829        268.9112538271543        105.9352023524527        206.30741543459095       80.20710579205549        401.44798334934376       574.1940895041203        24.80847867964476        418.6990190327034        265.2933099961386        364.0433431900129        104.64617277359443       123.6717879317502        5.857738638710966        6.4843881917768          7.194611447011888        8.271996497167839        85.9003190667782         58.72825438405223        7.418753506877288        35.205486634743224       6.3329649460501045       6.900561370630741        9.335614819840568        141.11461263066786       244.0034303401395        133.27323734360448       321.23989953602285       136.6644484490486        128.36783517930743       59.75313416522684        80.36293096883144        478.67379135997777       112.64708014468465       638.9741009693222        574.2271518813902        142.11409348844197       266.2620080866136        170.40732432385062       142.51334592739968       174.48146092877192       480.15695093859546       181.32428397286753       76.59088438870612        117.02425176206302       581.9865515977658        243.57528218209671       500.45280351572376       436.05410123140905       138.3815076323672        181.46674838121018       157.07243151884708       77.5155655337924         342.9479446459111        290.27540566762826       192.24167888076602       208.3257109955884        326.25043061431467       391.5131133849857        314.5482132264381        406.71439162516856       189.92698092362082       50.93820934904581        286.93852484527554       71.72237085770607        53.18758198633371        106.29646863187995       186.25349721432787       311.863815897651         665.1412515046741        236.01386488942074       531.6712966289529        244.38199311706816       475.694404214636         519.3150342897145        288.069185561501         578.3099986309251        154.1820863866581        59.26733023030616        29.90780634966778        277.22620203243827       32.119666579845415       731.443465932392         363.5998935356624        164.86760297637545       118.45260142056573       305.13440411470225       371.680958045786         81.9491275952939         137.25942075212396       285.65659144239095       180.24302492810853
3.4674882840211516E-4     109.76386338719271       46.86526767226154        117.97491122642029       115.10355468954357       338.64906942332306       744.6743956722488        90.36476684691264        266.4030892771759        412.24195846571394       188.19682805777052       449.9939521972217        197.070007857505         584.5177947184822        413.87539017462655       377.12373104726356       496.98042691726613       151.01777217697543       235.95345590809023       557.5799479322526        42.35020032751216        170.4460841500516        469.95206201100103       384.5802775138546        466.53658493262543       418.91933805452965       485.08871975920533       245.98913713791495       158.7637176471039        42.4018768143692         550.192502444197         91.69909488192843        99.31153428696831        46.150275448407854       226.56563603824264       106.15383326945144       80.13479762267674        388.5491030034471        90.00293053672475        104.3994031842499        307.53567363577554       481.64297349310266       157.3623175118721        385.43387402021733       403.3327545299972        102.83044901951209       404.83451892955617       105.46172821096869       106.1263516578674        76.67087254411102        207.38449093710685       515.141892365032         217.33318628588256       211.6139681120177        284.99956516028374       447.0725105277503        62.53203390216773        154.47469191492198       272.7946001506778        747.0915988996649        399.30354475218166       230.0637834086154        292.23870582975593       291.6539160814691        370.43256023153253       428.6424840329315        659.0784560547348        247.11051524319402       405.9386894105189        375.2843055163369        62.89847946173971        71.7018137183425         56.107003653249556       402.4371819074596        447.55892728886073       6.968147835833343        152.44191794510348       268.16349967907337       5.962140907088799        4.390744020114464        5.975928898432989        235.2372586021128        5.554826554435246        5.040052408574847        808.2718531947702        6.7779268730927456       483.717004929795         8.521335829063778        112.70848764120679       151.9298824277234        142.74252506569684       216.32219726940625       46.65600778958224        473.55376770765844       154.1139790719688        178.2209825787627        149.86939366444605       214.91041928137653       339.9277413761994        293.3583575670504        88.63216143349429        345.2997299305165        106.34252046117147       120.33371068894255       4.678854726955192        109.54121349572577       6.416684544625493        4.385718031936281        4.789005308739831        5.314274143035554        5.3392327095616245       4.282701436975572        7.988604925531398        69.25747939539842        313.92195007917485       445.99856306745875       63.5725544094794         7.123228808750679        6.90553839315954         53.67276316456387        80.32403507867204        370.57798097278425       418.86156083056017       203.02070437853905       110.15362830637427       530.317432861799         133.99151813438235       163.5826415353651        243.59285158475075       96.7217597156975         50.22964388841853        13.683541234121687       492.98497227807957       516.8534081452275        397.90033034182494       257.94041199117333       361.50036316574244       464.6439050609004        314.66797466491823       322.5518440075067        438.899889148898         683.024484483633         75.82181386925072        193.94476358753096       323.31085800997346       203.690500220553         47.23517693527773        126.61976382943111       27.988061590611956       492.38467766751575       176.79873018019552       182.34958012403652       191.10325190292224       377.57137466206575       416.00144148051703       498.6003449450856        742.0137500596301        291.80826991114935       506.4962476391903        126.65899066494879       309.50266084508166       344.7519803329708        266.79027408396456       101.72838109386183       198.56835018686624       73.64840149478377        425.2264888046941        608.4639129932635        26.149215912472254       433.4100986391048        267.7245613064499        369.1124723923615        109.66850201037518       126.81678484692691       5.838338428495484        6.758317984724099        7.524997393386309        8.189505200968577        90.44906004995785        56.20560601001958        6.694370927138665        44.16875512204984        6.094200821486052        7.2667365965467425       9.679748846861694        152.88429169652989       260.6222466115623        144.8890565768271        329.0546066808605        140.33142239943265       136.729627929116         64.46198135280822        83.62579357702624        498.7797373164953        111.59174847863441       664.2257964601569        584.6166823136008        140.67716581207912       279.0090945000271        190.31488189325228       149.9740378990414        196.52227964640667       502.5379837021254        170.16828407748514       78.35968692855577        103.39786291717766       609.05982733574          227.8153109059349        503.0160337400218        456.1090422464593        144.89205235374965       156.976565235404         152.17528093149352       87.42050404952134        354.67321613368216       297.3662447633146        179.92004691755778       179.37709387821678       325.1257585630348        410.94691556290564       339.57353995271336       417.8949536191184        193.9842593385735        60.5416737448541         263.4238911824817        67.74099138202564        57.77082605043647        105.56588007862071       192.47665758655495       314.31116850078485       687.3849965337016        240.8579544800736        546.4658215893404        267.73951054398844       488.5623482604801        528.3867789773046        304.93259666360836       589.722689170615         158.30665722796434       68.90216823751139        33.803403488703395       282.6785940729575        37.88199845197604        779.5868170509375        373.6480651733976        171.92693038503288       111.02081889943551       312.0069277545223        385.1840875578293        78.731426056762          137.65877284765727       296.3590700212646        171.21298038858015
3.5869766057380903E-4     110.0879344164361        46.97911733808306        118.21641340359305       115.30461918063337       338.571903429336         744.252871978829         90.58447568462108        266.37449809008586       413.3915656664265        187.812969283565         450.6647594351483        197.6402777137707        584.7994151570842        414.2947082337238        377.129564147898         497.5837270839086        151.39357654956314       236.10667433946455       557.9975006046923        42.40457560203828        170.7308116330499        470.0200544142148        384.7562306039423        467.4362361490695        418.72885796940335       485.2142879881562        246.16723013883617       159.03306788056838       42.47922908016187        550.6723915890328        91.47094971691224        99.26398528673727        46.188925935088164       226.82019807662002       106.27185463448212       80.07518218568461        389.03949884616117       89.9060863938196         104.4930821997813        308.45270522261          482.3203147622313        157.09583654428158       385.8963827681967        403.9906513404018        102.9972152567576        405.5103118351856        105.64323198878327       106.20030922458623       76.73921852988701        207.68939702593917       515.1434678145672        217.59587009250185       211.7145691423069        284.96971707635265       447.41551344069273       62.44817641889283        154.54709831619496       273.2804423483044        746.7629487228048        400.6187193257333        230.65590688578519       293.0199507825458        291.6442943443813        370.4061856799398        428.7074762227774        659.5836701375459        247.04688307282365       405.85630278706805       375.2461882820686        63.2233023592695         71.91918331729923        56.27292172527619        402.60947273413336       447.76250375013603       6.96962691003823         152.7634203372833        267.9971336350808        5.9532397431658985       4.396070507643994        5.971822786194609        235.15803757334535       5.551782204782691        5.043984792676923        809.0197700670446        6.785636786241297        484.8417437079349        8.52838768794447         112.89124671876867       151.5498259209495        143.00237194798214       216.43222357777623       46.658548839916016       474.0251498635064        154.23976585441972       178.0085338550063        150.04770397332499       215.5798244925354        340.9393278635335        293.45632419553476       88.90221228610343        345.608100928171         106.14764285936293       120.29357766278042       4.671698048400422        109.2125658286043        6.410271310658281        4.387602871354904        4.782127862621768        5.308078223856655        5.336258419166743        4.28553612632077         7.986159443637075        69.4541270411551         314.243079307032         446.45324179263145       63.858194394100884       7.129776321630616        6.9114993613236715       53.664033576199024       80.11305293178421        370.98985803437967       419.5236557941118        204.48870262212952       109.44082203695879       530.7976481026728        133.93638556565224       163.82643674728988       244.05332706818797       97.07549086156004        50.200544709884035       13.680814597513708       493.2312636859503        517.3123598427982        398.44099500192425       258.80452922860445       361.6136831047071        465.4522377199788        314.8071931480911        322.7551104387104        439.0479734246962        682.9551637788112        75.84357443058842        193.98554984425462       323.10826624654794       204.23922124056983       47.088073037272935       126.58840062793577       27.796703613209964       493.5406621310517        177.16656318650442       182.52744734110817       191.50846464002973       378.0982279527233        416.27069937062396       498.93718115289187       742.2730162362126        291.81881267607076       506.6364313241706        126.67777971736176       310.15004245938184       344.7880701330828        266.68707521249195       101.62057472755785       198.30399009467294       73.421546153448          426.0259889924894        609.6128554594857        26.20116586411501        433.8583923615091        267.78050261537146       369.2382597988063        109.83480236823077       126.91033839501473       5.837289028068441        6.767168734193976        7.535975553029754        8.186481986886548        90.6011438001213         56.177677180738705       6.670073580814039        44.53881810426137        6.087408130256977        7.279568417736037        9.692257629363068        153.2924721030608        261.2089062744702        145.28446933443738       329.3273601487034        140.47052479568364       137.00983892703348       64.62608287814925        83.73423741097827        499.4004205540278        111.54571674247246       665.0306269837934        584.8966100681647        140.61784025342087       279.42129732571647       191.003366351588         150.21359592312288       197.39358141969575       503.23749676060635       169.78909453769086       78.4386510756            102.96770041574798       609.9630200251903        227.27600396266212       503.05676855389          456.7340824054367        145.09752363807084       156.1636125430376        152.0391191233988        87.77000918819397        355.0665459493627        297.5698065425472        179.51314565344447       178.38633855098723       325.04759177722394       411.5779183521784        340.4388353049153        418.22962570326905       194.098123385668         60.88211974654811        262.61913145029376       67.6046484892369         57.92694108247106        105.53810218724493       192.66498861675413       314.3522182634647        688.1033846633212        241.0143659447797        546.9055623374956        268.5565814953717        488.9484103979714        528.6518227931831        305.5088848686916        590.053239121358         158.44033632898092       69.23741783246219        33.950882252528594       282.8303529646765        38.087156849802504       781.2057173296545        373.94258919542955       172.16971162828858       110.80511540950508       312.20540799002515       385.59736992115023       78.64570367761218        137.70743669806828       296.7020817064103        170.8693424142967