% Model:              6inch_1inch_ALUMINA_only_WGM_Qtesting_5to11GHz.mph
% Version:            COMSOL 6.1.0.282
% Date:               May 22 2025, 14:17
% Dimension:          1
% Nodes:              68
% Expressions:        9
% Description:        Line graph
% Arc length (m)          Electric field norm      Electric field norm      Electric field norm      Electric field norm      Electric field norm      Electric field norm      Electric field norm      Electric field norm      Electric field norm
0                         261.8910952695562        309.3637637848316        180.50825561849348       556.2813309821487        479.00640270406404       732.0468137404881        229.64250492937754       110.7444522354997        109.61266116071883
3.4674882840211516E-4     251.7405247530221        324.1821046473998        191.47926482992577       596.9371122508003        516.9686592226361        776.26049068928          224.70779132136227       98.50828731330928        113.9665090862768
3.5869766057380903E-4     251.39200664438562       324.6583652806198        191.8304485693769        598.2824328639133        518.2188466492503        777.6783750529681        224.57686602659447       98.11805441543441        114.16976342478789
6.58789248533383E-4       242.63473545095437       335.6861758295007        200.05491999048343       630.8292595646625        548.379829116479         810.9823332161369        222.06355631617257       89.14143774286053        120.25900032607723
0.0013821733026783082     221.2021101832748        353.90014334335183       215.18638236462996       699.2746559977331        611.8158144640379        873.1742106130321        221.17799467219052       76.07019127039779        140.6625869917188
0.0015065107667896482     217.4440041119366        355.82170217112764       217.1340473195692        709.5917421550148        621.4985600148116        881.3229510047636        221.6259070364347        75.3526092326439         144.70857052933815
0.0025517851732630003     185.29232911969095       362.0769431526191        226.65444382275766       779.3330316435612        691.261383814078         921.4539310331386        230.56477754832613       87.9314148307122         181.57611726006797
0.002645815986779744      182.43059329408837       362.2547145786251        226.9770830897986        784.114236448943         696.7000138648963        922.6693644982354        231.76987665755038       90.41605906367437        185.0233489253673
0.002952139351820267      173.3369076919713        363.2965751651015        227.53414848682286       797.9829291433886        713.737092184507         924.0430542906994        236.14118560106027       99.5751893002246         196.30245874806354
0.0030130215335792965     171.58891023883857       363.6559816205537        227.56354032303227       800.4285861038048        717.0176363707642        923.8561443900014        237.09330154863255       101.56453061840145       198.5495813493922
0.0033024638556163888     163.68761674613887       366.5382392784958        227.39804474372355       810.6496983939705        732.2611917125822        920.9651197920084        242.01950553031145       111.65011535782855       209.23925241355695
0.003302471594740541      181.4731929082359        374.6938049427484        199.51182221115297       741.0667611806539        779.3360151736339        783.673148267598         220.5108707324273        107.82274037929315       203.210583040216
0.0033025969121067943     181.4718352360891        374.6913175750497        199.50676501000103       741.0591069758327        779.3315993169941        783.6578714875831        220.50919311417258       107.82545535970628       203.2140582026785
0.003359396840699122      180.88936773499557       373.61962227993183       197.21469528294116       737.5832869469967        777.3696542130571        776.7042487103471        219.80586549662257       109.08181718870799       204.8030382818079
0.0036682415452802004     178.86971716456534       369.8666370451242        184.76414954766472       718.4710947097249        768.1787662962871        737.9677931074011        217.9833633845459        116.76664211348167       213.8596661244282
0.0038260042077461216     178.5802215196156        369.4178581331735        178.424067856037         708.5868703360981        764.537974569358         717.6841536723903        218.35307301305193       121.20634059388664       218.70181556139474
0.004595933498874077      183.99761773524713       383.6763144557442        148.2095663686138        659.6879359176332        759.108831301847         617.313931334894         232.0033711743309        147.0645544596756        243.52148684547757
0.004752088750935383      186.37612946846994       390.15980784366207       142.39329459265565       649.7552164742048        760.8682638330196        597.5373862677184        236.93218559467087       153.0503217323781        248.69582333243403
0.005194888167514959      150.44962839382566       381.4178882200168        100.00873950479111       617.036297586322         767.7170296107315        534.0773690115437        278.87685320542545       177.71479772980751       224.9361839076187
0.00582293255210413       156.27940488434334       381.1986566482584        90.1789375788637         568.1252834431037        777.6093624859202        454.8476789476211        293.4985323764874        192.66653033168683       200.8018529466654
0.006385772027551067      165.69820873470593       403.13974738024655       92.04222533869161        530.7025597189865        799.1201984857247        414.760958382463         307.96493901766485       206.91208493133246       178.191765854057
0.006773128716621089      161.48878982033568       428.8816712826444        74.34976184470925        535.5764439851629        681.232492053226         329.8487579383375        284.1878125386481        208.06828500139983       158.8933686391034
0.007304591575109576      159.66877603347902       437.4328759725642        90.64505906668299        483.59539222582265       705.2403226645097        313.8378103877036        300.494555195848         206.92140613845012       133.26858994480958
0.0073797674796735446     159.43630986709138       439.1081186778865        93.0138142306047         476.79967432554736       709.162401610906         313.3244586923984        303.2811842812379        206.61432262451146       130.38891983068544
0.007942702020450172      157.84487454640595       454.9467852693755        109.7115536679012        430.1361887946725        741.5747278207627        321.31103753924305       326.9479475734701        203.43551413527084       116.99655957999498
0.00888175832368282       156.94193329021954       492.7359693499321        130.78532394066565       367.7094495350579        803.1777158514774        366.13020825092786       373.51778643637283       196.92145427598132       132.83152686160057
0.009056357157124686      157.3591175782947        501.15830315746064       133.69286627180938       358.0211183747055        815.188129749683         376.7309889665606        382.7343825089938        195.9916940315713        140.44460189191437
0.009379321896051486      158.9848901709368        517.8177170751899        138.34308339381926       341.518629272609         837.6421365781626        397.087611241237         400.05172135131863       194.92356715973972       157.2316336410706
0.009502211504749499      143.57148647201657       520.298339839759         247.14212805503027       367.1375378563679        647.8112199365961        484.9725105775           433.07968913601877       187.91081589030614       195.24067835142503
0.009946468688734533      141.17345340106323       532.6410704029034        240.0620900064457        311.566970454789         623.6790430495596        483.30904899422757       436.7263923013247        181.26997577102284       207.67527645344364
0.011743083332222905      168.33533093683815       584.3210372828607        216.04455935044828       157.8430085126782        542.3667677416926        456.7309700439597        448.1019507564526        163.77802875951048       255.65349729455156
0.0118109522088639        170.7982528904139        586.103864751736         215.51722542136014       154.17740209322076       539.6995408442701        455.0415499515424        448.2708548636729        163.37893494838985       257.2195187477352
0.012264445936843445      130.54639026748393       646.5584807188109        255.74143241166934       132.28748834099326       580.0766407847223        320.4263800435262        412.1827887810893        167.3695069466746        284.6130425779939
0.012417605310561517      137.71896209438518       645.5321982885146        254.6293454753373        129.50146898613232       570.3686126149059        315.150217232008         410.0286109931666        169.6290334649169        287.2590594205693
0.012759203844596426      157.51436463569763       642.5799335663677        253.7234425506479        127.26648750007668       548.0363109416869        302.44314229138405       404.8638495645732        175.65878767917582       292.68580333415355
0.013589902496337548      232.28246694061087       738.4476387187411        262.0813604318095        410.10965031146077       428.09714155100295       309.1510481331531        344.8759266667637        235.3552094164978        247.51598006772235
0.014105559716453268      282.0076297561511        616.4077574488256        235.17536606363186       340.32887658922834       535.4608107663132        297.85383619511356       314.07090315704744       239.3945048184823        222.7630979310513
0.014153884318349325      284.7141800411925        615.0266996345819        237.56017925650693       339.62274965775794       533.3683687608911        296.91638739358456       310.343663710904         238.72639969845596       219.87838848725346
0.014979509520301285      337.8183940559855        586.1128782515044        274.44855868345314       339.3498829706457        498.69764391174215       291.7835161964522        255.26713033881995       232.78607497261325       177.24674714599064
0.015045417372405055      342.4108817322303        583.3756639736214        276.9380777749628        340.14740118491017       495.93747141847376       292.2462407343412        251.64166754676262       232.73803946454626       174.41974540858595
0.015056813937137396      343.20788061621545       582.8961303758634        277.3602940687578        340.2955951281056        495.45933609586666       292.33952048308515       251.02742322543577       232.7357913489915        173.94004778389487
0.015679979503720957      387.48784450753334       554.0515104608268        296.46776169877256       352.4040696085963        468.7136625533896        303.66264590974674       223.51035818012863       235.19696539996394       151.96118996825467
0.016080798206248043      415.98362579787266       533.166726874468         304.3826929231697        363.55135273738          450.70891573905664       317.9823775686799        212.62866620973335       239.24561128881754       142.3883647955566
0.01676556437056637       463.24473289760164       495.19603604227837       309.87734695112164       387.036034564279         418.8203608647663        357.30377239818284       207.1019697207801        249.98844955551607       134.16032376615587
0.016772783252534285      463.72929289046607       494.7927344909572        309.88324474442715       387.3095612187049        418.48235778770515       357.827165700983         207.12949905461377       250.124873958374         134.1244295592973
0.01725439929098864       495.2691360547547        468.61759313991035       308.0318910404755        406.7170864558344        396.39348833609205       398.25038402968363       212.65873989886285       260.20752910817697       133.7975248241036
0.01728321386646177       497.1039496399441        467.1274553021177        307.7891961825019        407.9513073138819        395.122229322933         401.02061203757637       213.20651655139326       260.86941307800856       133.8960702401596
0.018336510889307572      559.6567513701555        427.6556847323618        291.6835538829825        459.4820445713316        359.8653161516723        530.6500944431173        246.45063635908633       289.13233781469563       143.96387321438897
0.018488752567931175      517.1312287349106        313.4600992264132        244.8510954730155        569.6541892769811        296.94925024960776       601.4044695228262        246.2589984971326        295.03977965580845       141.76190680674762
0.01854636144964056       512.793658468265         308.99696842936055       241.52556777906898       564.08372561063          297.27315263299187       607.2362278073272        245.7222061560695        293.665610088733         141.19596361690165
0.018945941592533103      482.5884326381563        282.34722469480135       220.14175481857055       525.9879216814403        305.6703874988471        647.9800586008287        242.3438381393627        285.1411307732041        138.20140408654692
0.020166513145029197      389.14263339554816       262.6677906288783        179.16185904140548       418.30524661641414       380.7735635553108        773.2718129638242        236.25862708381314       267.4724515249397        136.94465646079288
0.020605419234597834      355.37529300713805       280.61652540545293       175.9566659376563        384.6160375668214        418.29416547891924       817.8976562543767        236.00733799069363       263.06849253054224       138.46853653223928
0.020663028116307235      348.8803796286492        350.92309992669004       229.39328103102946       378.00235969670257       439.74681017015973       837.7420593765426        226.14168665619098       211.47454245573974       164.71581607508588
0.02091163162188664       276.41464935622054       318.6054538097006        277.6023146880689        665.1377385358077        453.43457254038105       872.127564874873         192.21607872812785       203.978070798508         147.37558190262868
0.021063867144437365      260.60652146383524       332.4793972025558        280.993024916904         657.2331813851092        466.4466484769714        885.2899146781086        188.53518504461445       198.36729294817852       144.684127090612
0.021304334013542012      236.3993588973258        354.7049878463289        286.45729457138344       644.6427535553818        486.69706298174606       904.7665374376066        183.73077745100989       189.29479698871452       140.7995446117212
0.022300772260515758      98.41646691329797        425.05367891970457       278.51383529687547       491.22777609570585       494.10738038994634       901.4392746117962        193.140127363013         230.8877018809983        141.5159829432761
0.022328057349341634      96.81101901526509        425.5982730794173        278.51348183869453       488.83700561609135       493.6615678484999        900.6186030682396        193.5123565010528        229.5508991758046        140.58580213029265
0.022494236682151596      88.21438239669857        428.80588624459267       278.4847135852276        474.57070485502726       490.7381293952486        895.2297496835306        195.99287735587578       221.33294632917043       135.1136652125317
0.023366327261182658      88.88609460814862        439.8045188508083        276.70565377043033       407.65924205807033       468.2183249521785        855.8802233915341        213.55009876840543       176.27209332459486       112.86313967857808
0.023850386130257875      116.74889421017485       439.6890974991927        273.8412435052277        375.94560359564036       449.4773018892319        825.9868112256096        225.40625659975555       150.32325622438128       106.28253486480381
0.023987887167332404      126.25532947048866       438.6935511194892        272.7217889737493        367.6046832773943        443.2504892934393        816.4502044953888        228.94505587507678       142.9457463997242        105.27553446446397
0.02404137758713301       130.06924185792914       438.1873787719873        272.2477496937923        364.4380779443766        440.717342553854         812.6159099994784        230.3387124894316        140.0859926783137        104.9896719199975
0.02451334997351633       165.5339151286211        430.81741091366246       267.1044752574574        338.3694490118883        415.648123160393         775.7859808068349        242.99891072067786       115.52617948805543       105.01679063486154
0.02469225653478715       179.50031345582443       426.6787244395192        264.7000362386839        329.3604023967919        404.8712541746431        760.431688006397         247.95427977557264       106.83832138840319       106.18069034379894
0.024962433499910508      200.8581822137379        419.0981188583564        260.60398307959576       316.66810019707583       387.30153998386163       735.8183614495204        255.5958893351049        94.99568848069472        109.03634594210304
0.0254                    235.76998204751203       403.7789746088039        252.85807650243373       298.5020402317174        355.7528280444198        692.4090821734654        268.4070347187795        81.5991522341001         116.10844148599487
