% Model:              6inch_1inch_ALUMINA_only_WGM_Qtesting_5to11GHz.mph
% Version:            COMSOL 6.1.0.282
% Date:               May 22 2025, 14:10
% Dimension:          1
% Nodes:              68
% Expressions:        9
% Description:        Line graph
% Arc length (m)          Electric field norm      Electric field norm      Electric field norm      Electric field norm      Electric field norm      Electric field norm      Electric field norm      Electric field norm      Electric field norm
0                         37.71895436909343        13.488306498762906       286.93857143046756       310.87796743596857       306.6458477194132        206.11413164123925       84.88332252911036        367.89945968180814       474.4373990139569
3.4674882840211516E-4     39.54891018232616        13.9083860192359         289.79132532098976       291.2268232947292        314.7610529088119        210.07631460877565       92.56722724919045        425.27023132561527       451.48230460432154
3.5869766057380903E-4     39.67048724688565        13.923962479135627       289.8481974609333        290.5023748615483        315.0167520468404        210.18391223998046       92.82467744960069        427.25530497388894       450.65250010159644
6.58789248533383E-4       43.90984377654189        14.33312107706686        290.3550346604735        271.3021468316568        320.8823761301446        212.26425380137638       99.0838941045677         477.20023152573236       428.96808516389495
0.0013821733026783082     61.553586358148635       15.405605152224336       284.15379648130954       217.70156393785769       330.4137566999793        212.60605086838993       112.22952048012046       597.6938784820646        370.0897570774606
0.0015065107667896482     65.36205695680052        15.59581539920303        282.0168678448193        207.61507669966812       331.38614866238095       212.05513767638178       114.18804392082622       618.3581246781721        359.0447315882797
0.0025517851732630003     103.33503696264253       17.213127086845613       251.61238566176746       123.01382607560544       332.43173933159534       202.20690671779204       127.2862669014661        791.0816959912188        256.1519813964984
0.002645815986779744      107.1862053641364        17.360417650931947       247.80186515740985       117.0506185058983        331.97814997548414       201.02834900577295       128.2002688784733        806.525385836525         246.10004325476234
0.002952139351820267      120.1666344304771        17.84515281252959        234.19960185797143       104.02283608677723       330.02315177558023       197.14661965382766       130.93676240585978       856.7305909074176        212.65855830897698
0.0030130215335792965     122.82370489028445       17.942678211189634       231.2837316590288        102.99386522162423       329.55931319659743       196.38955282254665       131.4414517362853        866.6902651075729        205.90948195534622
0.0033024638556163888     135.79594793313032       18.413892693151322       216.495115189981         107.03062811067367       327.09967980962296       193.01765649643505       133.6975627681217        913.9598337553252        173.5996961777178
0.003302471594740541      133.02366193454196       18.4075332398599         212.54866550276685       106.48843284267814       326.5643298101019        183.0690533534547        137.75153258757013       968.8580591079348        124.89527521696172
0.0033025969121067943     133.02810240548104       18.407587641460946       212.54255185430546       106.49204338191149       326.56254991462214       183.07004146359702       137.751964778897         968.88670732149          124.88117731272463
0.003359396840699122      135.04941484399583       18.432396599111918       209.77669515864852       108.42454709991206       325.7745307649823        183.54776644258723       137.9632270755878        981.8776389492306        118.66294248645514
0.0036682415452802004     146.30812642828877       18.572789838767406       194.97597664747326       128.1517809736354        322.15942583163354       187.21018710843825       139.6393683363765        1052.7580492174684       93.29784346905078
0.0038260042077461216     152.2053283867787        18.648413266211328       187.63352116077317       142.99928656292897       320.76373264912314       189.79085772953664       140.82944974944945       1089.1517284123474       88.47862019116499
0.004595933498874077      181.923920894654         19.0701396419241         155.9088613565122        240.26410316664723       318.61792220167223       209.3790749298373        149.60385450973013       1269.3159077431635       147.93854061563968
0.004752088750935383      188.08171410381863       19.170268470045016       150.7872503586014        262.99929041856535       319.1688008217773        214.74362092251073       151.93041598519608       1306.5165343751446       168.77528205714734
0.005194888167514959      212.43716836008818       18.936232472147026       135.12830079467557       367.56011041396926       322.16706135826917       220.7065086732599        160.5175505015398        1381.1378928090714       229.9517791557578
0.00582293255210413       228.9822194399499        18.469450462182273       119.33622430053488       453.7519971154402        338.0041843048609        243.49901729736288       175.5621454804348        1431.130161416831        312.9676101465883
0.006385772027551067      242.76124053597056       18.28844140110542        116.15013516757088       529.7573940669301        356.509882425977         266.84964731636813       190.38374054822847       1474.9514215884715       388.65349890171086
0.006773128716621089      250.65613062821208       17.733195941998165       91.2238274676432         562.0478876692043        306.9752801626682        190.62918950113328       206.27746290004012       1542.549146371317        420.50306908979735
0.007304591575109576      255.36961089954517       17.07068945099929        79.92866842715188        576.6320721771137        306.98018531484905       187.24389980765446       219.233188822315         1498.1830463992744       457.0557564913759
0.0073797674796735446     256.02084126584975       16.9945441964724         79.04612582202518        577.9354484971126        306.9973572124262        186.81528456417502       221.03717546405727       1491.799385170839        461.164166800956
0.007942702020450172      260.8263686004865        16.53166774921726        77.80624418112968        581.5539217497465        306.83384855902676       183.5092490399578        234.26676215417126       1443.145964102384        483.40959311304096
0.00888175832368282       268.9073650925987        16.02195819596813        90.85612850131612        563.0929719220625        303.75314816091594       175.54738636325752       255.14602004508774       1359.5341593557914       486.6971060997703
0.009056357157124686      270.47745321005056       15.942126140708353       94.40377920204364        556.2766318497231        302.6154518694309        173.48991943179493       258.86867443464615       1343.9062569449243       482.6282250355895
0.009379321896051486      273.48529436406676       15.794091206059878       101.38999506860777       540.9085397317281        299.9683139687056        169.08443407452398       265.6384040010868        1315.2280703086367       471.2475578467567
0.009502211504749499      275.23241677146996       15.81551300152566        107.02565157167766       503.8050519324651        283.670022175685         156.91201642401896       280.87980130240004       1220.5747145359273       442.3800054442071
0.009946468688734533      280.2073043555561        15.209756033509354       116.8765804413887        459.94246120379273       268.2056167180094        155.0669968674122        283.4367285842041        1153.3029332633012       401.9319257848552
0.011743083332222905      300.37478976478735       12.298542399857372       142.53886631606275       246.6326972316668        202.23141016310174       127.01912018494286       294.1284207208648        918.2008184135083        194.6840827431475
0.0118109522088639        301.144970038328         12.167959428058587       142.5970496944568        237.56948531390668       199.64451997383384       125.2045507139736        294.5901073457239        910.328892636721         185.65657427507412
0.012264445936843445      288.1091230113242        11.482537128295025       229.86172191891634       184.23245426018786       172.3688011073846        137.10132016747892       291.71717752531754       848.6305123801319        183.05011607947142
0.012417605310561517      288.81709882388776       11.13041246639855        226.78779545329994       162.84427006706895       164.41266256041888       131.14998769419          292.6007691072143        831.6847381957369        165.6284241060174
0.012759203844596426      290.28630873416836       10.308997012812444       218.20974243992254       115.24041647784557       146.45302180116306       116.88244948856861       295.0072219121786        795.6540969871342        130.12475038707942
0.013589902496337548      310.2874083975685        7.016491182781234        147.77807021053286       98.97314401763492        110.782066835218         76.40438868482897        296.9951655526584        713.177486385249         174.76158245069183
0.014105559716453268      298.11080032220923       6.136066776201007        145.89099457365933       177.54572894105294       143.3060976735922        65.17347673718935        329.55754537515736       567.471479705838         267.1545965503483
0.014153884318349325      297.1946714118001        5.983919490594993        145.61437989199482       183.84472927280933       144.4670369993045        64.82492748493915        328.26040488416027       567.1576650384221        274.0953457027498
0.014979509520301285      282.49015107740405       3.9257985652959215       143.5047414843964        282.0848803701573        175.1158134043277        68.52928244016597        306.82986937329133       573.1608207674955        378.1215680654253
0.015045417372405055      281.3855327178499        3.81733877171623         143.5017953668425        289.0348408386254        177.98717955195943       69.53877908363827        305.1627742823479        574.3838494912831        385.1309623541893
0.015056813937137396      281.1954590871222        3.799622369642577        143.50323218133846       290.2222176301536        178.4849805832079        69.72228172928274        304.8749407434317        574.6040984349364        386.3226436384842
0.015679979503720957      271.19128069054966       3.3473018554481917       144.36250832549547       348.5423506649106        205.20775378462423       83.04954947287916        289.26111576008736       589.9155089613113        442.1884755131855
0.016080798206248043      265.12317547227804       3.577127993729789        145.69053561434032       379.0578145541521        220.72083321294298       94.07667172976512        279.24858664273955       602.3357705850042        468.3185381047497
0.01676556437056637       255.35390378633986       4.544212946854974        149.74489365965707       418.32643733537583       242.2217704046242        115.34462605624537       261.9466611891041        626.7046936185592        494.9810852993552
0.016772783252534285      255.2548615634898        4.5565661669106285       149.80319721250171       418.65369263427243       242.41051129287726       115.5797272537739        261.76209304516317       626.9801410131885        495.14104683460624
0.01725439929098864       248.84100589378974       5.430211967941864        154.6792131498301        436.40159564921817       253.11169703302198       131.60423915436434       249.31599099745796       646.2608238983337        500.1103712413992
0.01728321386646177       248.46985883623975       5.484755597251085        155.0406422422237        437.2085268841058        253.63274429865308       132.5808532303323        248.56256054585742       647.474757211815         500.0519808933578
0.018336510889307572      236.07753084422367       7.5680197068920005       175.65486257520064       447.10225579392437       263.62321021633966       169.15864950053637       220.3376538922383        698.2474310731453        470.6307289300803
0.018488752567931175      236.45341961288895       7.7716919563296845       201.41441936778787       426.29442905354006       258.21697179637863       99.51181368445047        184.61483088506236       703.0285054458042        455.9623970490665
0.01854636144964056       234.183594963105         7.829510375750108        200.10157977625772       420.5760768824798        258.25556060436554       99.41037850253645        185.14424837577045       700.2822807078537        450.3577571265962
0.018945941592533103      218.89003793423652       8.22155278563246         195.0353437465176        380.6277291167581        259.31348081142494       101.74447070846946       188.94307825223225       681.1657777691242        410.42089489711503
0.020166513145029197      177.38757396556255       9.288213149369115        220.76787613885696       255.72128436172596       269.33372201812983       132.50764645755348       200.61390154835723       622.8932475251287        277.7685514365857
0.020605419234597834      164.5724955921621        9.617620202513226        241.45383349567632       210.06179899345244       274.8667851016909        148.0786267895889        204.45075981337993       602.6454662750757        227.03836485325996
0.020663028116307235      161.31578921760075       9.663811434983803        154.4846580123625        190.5900721557734        220.97196790815312       177.0998876453881        192.1634405607065        599.9747158046592        211.27299967604063
0.02091163162188664       150.82582145137164       9.534530659957706        175.745617696582         162.97116046370027       219.566328012521         215.5241280789734        169.39663371993666       661.6118461105181        174.00974040625013
0.021063867144437365      148.2560781562422        9.577176561508233        180.84294670476405       146.3144816406092        211.11671354428793       210.86637587184637       165.66370044992632       643.7779689170873        154.42504343005345
0.021304334013542012      144.38403726982034       9.63030359179721         188.978252633987         121.22584726702446       199.67556387413103       203.75100644808103       159.81882472579412       616.274770934929         127.83260325029079
0.022300772260515758      125.69471224543973       8.106354862619215        185.94038520543214       75.46844072689254        172.61961909480314       165.50652413435344       138.91733393486422       423.90873483114694       138.7887031438043
0.022328057349341634      125.37778743314419       8.09394714836689         186.01741336874505       77.65807656032986        172.4626861609528        164.66243720381752       138.34515903727095       422.05585653729446       141.3098290652519
0.022494236682151596      123.43522941245014       8.018015796787415        186.76474556447596       91.66898914979826        171.9873757083254        159.61721219448447       134.86078267197288       410.88937727117957       157.75096464411203
0.023366327261182658      112.84646498679996       7.578507159124603        196.00017781323925       167.96116771545374       178.84600582375558       136.0919199961771        116.68298438687933       355.17198885540733       254.8224027916082
0.023850386130257875      106.70600130837484       7.28078347801852         202.72351716880692       206.58521892240904       185.51154007551074       125.50874977198909       106.87206477932294       326.0636786205559        307.4047833896559
0.023987887167332404      104.9421856288048        7.187279807351406        204.61202131656745       216.84557662953375       187.37605743408398       122.8766273718723        104.16548460320011       318.0338896653041        321.71086840083575
0.02404137758713301       104.25520402768987       7.149794447317228        205.3347286978138        220.74776893176508       188.08190279362958       121.90059491641262       103.12575918276673       314.9412713067046        327.19050293625133
0.02451334997351633       98.22587847990035        6.7923003206934505       211.24313747300778       252.95256334341508       193.5420536960928        114.53051964549536       94.38587974533388        288.53157686090077       373.30982056458424
0.02469225653478715       95.98857819926805        6.644863601628373        213.18877266998493       264.09432416124713       195.13136084543964       112.35863093854466       91.34599367329666        279.02171957519107       389.6911820621649
0.024962433499910508      92.7175944156011         6.411596963430544        215.74044568048436       279.79087609580046       196.90454547646698       109.7754558441108        87.15541594331604        265.3548853467051        413.2329452488116
0.0254                    87.88501039021632        6.015187090324367        218.7508425410458        302.30430005172246       197.9714806771097        107.46281640498793       81.74736041321546        245.6286767371253        448.2353356747316
