% Model:              6inch_1inch_ALUMINA_only_WGM_Qtesting_5to11GHz.mph
% Version:            COMSOL 6.1.0.282
% Date:               May 22 2025, 14:15
% Dimension:          1
% Nodes:              68
% Expressions:        9
% Description:        Line graph
% Arc length (m)          Electric field norm      Electric field norm      Electric field norm      Electric field norm      Electric field norm      Electric field norm      Electric field norm      Electric field norm      Electric field norm
0                         150.7704314900604        116.09700920248679       216.79525566614856       113.0031384389375        136.24545081065827       204.99317391089426       583.9383333962888        56.25059884849302        457.3781500409135
3.4674882840211516E-4     164.03562927432975       124.54143385401689       241.7110306096458        129.4828406193856        143.5897069039767        227.03017127540053       633.1180499560352        63.883361394015644       442.1994637462163
3.5869766057380903E-4     164.48040373801777       124.83234533344108       242.53852836871255       130.05665674193898       143.81579301679065       227.78840484517738       634.7680649852776        64.14127041705191        441.6377447911941
6.58789248533383E-4       175.36848194409444       132.12150717217517       262.58405742517755       144.38014642375498       148.90331940120382       246.7972830528053        675.2262220151912        70.44779154230434        426.6900442513278
0.0013821733026783082     199.33478049193013       149.4374635881102        304.8055973441666        176.67309241578806       156.61717422307976       292.3868923227155        764.9669810096633        83.92234916930646        384.1033378239138
0.0015065107667896482     203.1326884740423        152.36537419300902       311.1901678801628        181.75214597800112       157.330275991579         300.2087785824723        779.2830247153945        85.96117701499377        375.87019580821044
0.0025517851732630003     231.6672984878266        176.359623684471         355.6073916983355        217.70244342617698       157.53968818510552       366.4565418433641        886.8528519153903        99.86813692130707        296.8175122092209
0.002645815986779744      233.96788521976492       178.46673607803206       358.881537030708         220.31439253711304       157.1722871139143        372.50694250877956       895.4178966873492        100.85429738993724       288.9239386415456
0.002952139351820267      241.20844367768728       185.2808887925267        368.8760407304959        228.09615190616404       155.75020322163667       392.38984850022797       922.0615485768262        103.80359173819716       262.4900889234157
0.0030130215335792965     242.60470030381182       186.62678237017002       370.75108360138427       229.51038279702877       155.44307551377307       396.3772643642427        927.1285550710832        104.3449293422421        257.1221616009304
0.0033024638556163888     249.07276475815826       192.9923095757145        379.2384850769662        235.63688497385965       153.99378435219867       415.5232647978514        950.1885261197461        106.73831316741284       231.23233863164955
0.003302471594740541      243.84107867689286       144.62953644462502       382.11872241179213       253.24603727043322       155.28814188540835       415.69314902697295       967.2432037080421        111.01146492499174       183.20181365861447
0.0033025969121067943     243.84259707481806       144.6301439588201        382.1238640683695        253.2478799646334        155.28497654692165       415.69863170357314       967.241900056378         111.01223991761826       183.18774027234886
0.003359396840699122      244.52407807771596       144.9198211766417        384.4590039301818        254.09759958104004       153.86965962029942       418.18389983865234       966.6318146780155        111.36948333426089       176.8911928610823
0.0036682415452802004     247.99287607463359       147.01305044814853       397.3301881968476        259.2227060832591        146.93993062061864       431.66505873207996       962.6551859919895        113.52687312494747       146.3982079434754
0.0038260042077461216     249.60961112594262       148.43662719658377       404.0282697843602        262.1675829622567        143.98774000928427       438.49725411384696       960.2057145920037        114.77502073046782       134.2955602875564
0.004595933498874077      256.00692562189096       159.17491504190033       438.15015150959374       279.6615945246548        137.41225848052642       470.8108626372877        944.5189816416938        122.43649472778505       134.22003764511308
0.004752088750935383      257.0105013387553        162.1743345507777        445.40452886789103       283.83335401959243       138.0090245042474        477.10896353138986       940.6512938067949        124.3367979201852        146.56854323161997
0.005194888167514959      259.42631420026044       182.0496941007646        476.8360472327121        258.43127243047206       139.73963290781708       475.36434052035844       884.6441435074416        109.15824759723075       205.15282045172947
0.00582293255210413       255.29672079304598       204.21482394676715       496.15055542583366       254.7592894572014        159.81658833374846       470.81934996507283       835.9968611100762        113.63729432391781       281.99066147077167
0.006385772027551067      252.6643256325396        229.06689085367037       515.217606939843         250.75587225362716       181.69827584775962       466.70812785800223       782.9353380311969        119.36369268977653       354.85585990742766
0.006773128716621089      243.89581774894756       182.4605255412383        453.93073445713515       259.2456149656374        201.70037640810654       430.67065828980236       743.8644165431829        136.46010959623217       396.8211495046516
0.007304591575109576      238.68781385361976       173.5819943558087        409.3798027097285        253.02206629345616       211.80865188665464       406.7598097520036        694.2901733198603        143.86894435267644       446.1096684810285
0.0073797674796735446     238.1430558277003        172.41907272369218       403.2573548515718        252.0660766986906        213.1473828763041        403.33364798410634       687.2401741965282        145.11678077827997       451.91704457869537
0.007942702020450172      235.52507798587544       164.20178436406158       359.11999738133943       244.38833961881812       222.25419040044622       377.1898648536358        634.1986788910814        155.8052584957054        485.8978818877304
0.00888175832368282       236.53276776805643       151.37836469662446       294.54655868537          230.1401294809187        233.25692289960799       331.4314298751106        545.100788998262         177.80691929305812       504.3958878022453
0.009056357157124686      237.39938499540105       149.00155508619525       284.25428401425796       227.40811459583054       234.68527535669838       322.67748695282256       528.5223044736117        182.3320274795961        502.50459821542483
0.009379321896051486      239.515983810395         144.56833047216344       267.07523239264964       222.3951514546512        236.8204054898605        306.40737111041364       497.9192492919265        190.9803817575791        494.5868364603948
0.009502211504749499      244.40149592697762       175.12119990487082       207.2246460396557        188.32282326017977       264.8070854793894        266.7478678584763        409.08222727385277       202.6004746197313        461.15334043794394
0.009946468688734533      248.2571967191695        162.4604243427414        191.9468989442052        184.674861971614         262.64384963667885       234.22248751749902       371.48947401830094       208.25783600280238       431.7696288398746
0.011743083332222905      260.3368900977911        148.81540545568464       185.7478971823517        196.92129040497358       254.12473807606347       113.03829347016382       257.0394373667432        228.6192821824591        267.5292683824605
0.0118109522088639        260.6237809095422        150.09078281587443       186.3839008503663        197.97862019851522       253.98882264679176       110.02054008409651       254.47545973302343       229.21087870497732       260.1837362743013
0.012264445936843445      307.29947842496915       119.37446711318539       297.4309526707081        231.05731117173167       242.94943560422132       96.57816686059077        323.92990328719276       221.18823209719633       238.35592873582257
0.012417605310561517      306.37200260227365       122.72271821054866       295.56702983199295       234.7911079719528        243.87254461257805       95.94698789211408        317.50812508151495       221.18995133892435       219.86694522137006
0.012759203844596426      303.8862165105717        132.84633348005394       290.53848741824066       243.01133407641888       246.4176768389386        101.59643517787914       305.04755774292215       220.8455985833203        180.33856314031615
0.013589902496337548      280.8665396942016        169.59185536502818       258.40785092324296       215.5976844361259        234.444859648877         162.22339091711635       314.92256802685796       204.75240903180642       144.60188074665012
0.014105559716453268      284.92614074453365       155.33061441587842       326.2921949974796        223.32874055815654       281.6799298617454        180.6603817044544        317.8113113242361        200.81853204356514       190.51194264440417
0.014153884318349325      283.9243707559364        156.3286830801233        327.2845605336473        221.37954489144545       281.1491264530562        184.1178603157009        317.534213702887         199.6596472813034        196.44307456475704
0.014979509520301285      268.0154447457735        173.26051282827973       343.8219512804332        193.54115553529851       272.8314114640143        243.60773977085307       322.7007540651699        181.3847431072412        294.37961626231686
0.015045417372405055      266.8470343115867        174.501527387952         345.128520898425         191.8003803449217        272.2136947743386        248.25231885388888       323.91344916693345       180.05549437080282       301.28454408490995
0.015056813937137396      266.6465726634058        174.7133190418323        345.3546287315291        191.5072187681578        272.10737117140525       249.05257245819078       324.1349840509077        179.8276840923469        302.45977972755276
0.015679979503720957      256.41409904497465       184.77320553187081       357.97857532172344       179.26365885532604       266.4492635089073        291.2965057556329        341.4748988348485        168.33011923006617       357.5693335773723
0.016080798206248043      250.6250434053023        189.3660361050629        366.68835260473713       175.74215509696066       262.8814343525744        316.6901477403844        357.89633282397284       162.01016169059562       382.8141853632101
0.01676556437056637       242.29148525591918       193.29615452885875       383.76861268199445       178.73715111960243       256.68823557692025       356.6592447363797        394.99197462026774       153.4544484671465        406.44318847414945
0.016772783252534285      242.21466470482312       193.31035033922242       383.9689160121116        178.83256351196164       256.6215037467517        357.05805348658305       395.4417212136502        153.38078903306553       406.5594531411852
0.01725439929098864       237.64024600081282       192.9773910408052        398.5785571140319        188.26205616201747       252.0712273897624        382.65990356197716       428.1207517060412        149.32688002526123       408.03362636854706
0.01728321386646177       237.40184342409518       192.87861625979065       399.5386724585484        189.01672902062148       251.79223309357323       384.13107008199347       430.240749987512         149.14037534988807       407.72992910108565
0.018336510889307572      231.62654398603152       183.76474443762123       443.1636914703102        230.63679184115813       240.9936503586811        433.8970503133204        520.1123892799508        147.17046205349135       366.8140222210497
0.018488752567931175      242.1086740463995        191.64635708399246       369.858788709844         249.30196132676585       238.84249769074717       427.8317992060448        601.3714094173417        138.8141418539539        309.308901336009
0.01854636144964056       241.4300581994988        190.36581727199976       368.9987813707924        250.61176644945198       237.26096422860869       427.39436201751494       602.9194716701886        138.38017696516278       305.4822813110906
0.018945941592533103      237.302091755726         182.48853567222847       366.04221909662795       261.21796638584993       226.90199152724907       425.9246883345889        613.1306498015639        136.47271290498284       278.3583858576233
0.020166513145029197      230.346167291023         171.89464406136946       384.9535599868565        305.0736337988804        202.9253712079768        438.0228638640259        638.5226015783848        139.9337732917594        195.14349909741054
0.020605419234597834      229.6229587803616        173.93035076299554       399.4393631573176        323.43962060288993       197.6383638586617        448.1326169067267        645.6095332401168        143.32790315156595       170.544669877509
0.020663028116307235      200.6117450211126        145.2367183225207        376.4015772241995        289.2537815262462        158.68209128941314       466.4212717660811        770.0632466397497        136.20278667706071       159.98317682312512
0.02091163162188664       184.53562213616314       134.19203965595568       388.08976520416775       301.2983263145153        112.49271115880602       470.1636239620912        781.9714139476586        139.47177377768182       173.6943144006408
0.021063867144437365      182.2766397611851        127.63827583636562       384.95423865550435       300.36710895759785       110.81703934484368       470.5031041187517        779.2374670331209        138.59931891064534       167.743916056733
0.021304334013542012      178.67928372213296       119.41628828363662       380.3047311149199        298.9425898793057        109.09560313975948       470.8601244436284        774.4008942723259        137.2776697734851        162.24083129151236
0.022300772260515758      143.04694684961325       129.4498175068244        359.0468832147844        273.78796866406145       110.50697705700989       485.2285626913115        708.0274434698778        145.4709747449971        202.53259960768412
0.022328057349341634      142.40340725259736       129.60404866611566       358.39599669448756       273.1709179474208        110.62746955203075       484.0480357855532        706.0916231344812        145.15744879840702       204.2569947274043
0.022494236682151596      138.5058645649561        130.61334042632987       354.45623912720043       269.5223318850761        111.43429731958754       476.63555172077866       694.1418752416322        143.22886147866578       215.25712158582147
0.023366327261182658      118.5459277456606        137.51444616446437       333.7640339498243        252.70647818768472       116.51039572765897       431.3103519521788        626.9423802690266        132.33795133733753       279.48697303479753
0.023850386130257875      107.72957140584683       142.2475646870251        321.6836262890327        244.3243641793387        118.94994820294605       401.3929856224081        586.444750365647         125.56477055079125       315.0303162100483
0.023987887167332404      104.68526087269797       143.69181345891894       318.12260247298434       241.98142664333332       119.50129879084194       392.2722128099738        574.5399846485878        123.5352899375767        324.76274471751395
0.02404137758713301       103.50444328861701       144.2653460002642        316.72026657594137       241.07044610907107       119.69534694203651       388.6501225879232        569.8622243987238        122.73323626952721       328.4945851638391
0.02451334997351633       93.18377491295414        149.61553018141626       303.92166247978196       232.95801398857688       120.84933863330929       354.92208702634883       527.5022828409344        115.36728868083992       359.92827607557865
0.02469225653478715       89.3301657116018         151.78616580523808       298.87516558545605       229.80991502126767       121.00071543876875       341.3272787500541        510.9640406175705        112.45337490871485       371.07389787220586
0.024962433499910508      83.59957895699776        155.22703265778716       291.07526050109345       224.93580190685321       120.90875858937075       319.9965345289297        485.53808087524084       107.95655050251689       387.0351228481015
0.0254                    74.66620103124902        161.26619048188724       278.1175865569248        216.6571413654776        119.91874736910148       283.59092065265156       443.38866295638496       100.55250542228539       410.55598210280334
