% Model:              6inch_1inch_ALUMINA_only_WGM_Qtesting_5to11GHz.mph
% Version:            COMSOL 6.1.0.282
% Date:               May 22 2025, 14:19
% Dimension:          1
% Nodes:              68
% Expressions:        9
% Description:        Line graph
% Arc length (m)          Electric field norm      Electric field norm      Electric field norm      Electric field norm      Electric field norm      Electric field norm      Electric field norm      Electric field norm      Electric field norm
0                         357.9314095205373        482.17291776627206       321.3445504616671        377.9078514540492        287.02121837598304       190.98852535762384       325.27702043567245       491.3717461353606        189.47840288889154
3.4674882840211516E-4     362.6358385390189        510.84244816133327       318.83976740419246       383.303537940294         302.7801399847226        202.40973738643294       342.3474145557011        506.96828559094837       175.49256578434517
3.5869766057380903E-4     362.7464573354293        511.78278135670445       318.7800736818619        383.459567521944         303.3248437711695        202.93755842041458       342.91923195851615       507.4666763463758        175.0683676767071
6.58789248533383E-4       364.4534793369588        534.3475157324319        317.82759967948897       386.7405372130234        317.0098786964158        218.4265879783404        356.92823310558373       519.0392882224602        165.9483588935082
0.0013821733026783082     361.03033310849924       580.9330086673443        319.5732688119326        390.07201035621125       350.17531370565          266.8095179345286        388.21485793342424       538.7885616413421        159.38683858453712
0.0015065107667896482     359.5576334979257        587.9812392025722        320.42597165354255       390.10289447009285       355.97903878629654       275.96113155000984       393.3109615679164        540.9661713796494        160.8512536490155
0.0025517851732630003     342.58313956395364       641.3328317242974        334.3484453562426        387.63454424387487       408.94856518152466       356.54116317220405       435.0021755080062        545.648303823386         202.73498026280603
0.002645815986779744      341.1266076770414        646.0320325163041        336.2504979129087        387.46638251862123       414.30777231847765       364.01656158263256       438.80840447088605       544.9851555368342        208.72040579366413
0.002952139351820267      337.2554893762142        661.8754458671481        343.2976650372247        387.4563536427585        432.7754962398214        388.66091934070636       451.5044711871449        541.8173276723767        230.18536607512493
0.0030130215335792965     336.7012091050476        665.1646455906522        344.8609970655682        387.5850418509244        436.64975752999425       393.61989957296663       454.096675118711         541.0232770057128        234.78041646033228
0.0033024638556163888     335.4264543842793        681.7265374662993        353.08290382575865       389.0134961146151        456.11954830428846       417.5332711800593        466.83086745655856       536.6474028070861        257.9503645074036
0.003302471594740541      300.22627002687983       721.5758960108354        399.11734690503533       345.53006425287685       425.447565874937         390.949044352972         469.52987759348576       533.0063679598617        260.66450233578297
0.0033025969121067943     300.2176648175795        721.5720673526345        399.12116816661165       345.52758002044436       425.45164269233015       390.9511541270519        469.53362503946164       532.9987002565427        260.6706402814909
0.003359396840699122      296.4514613801351        719.9331542347065        400.88124858373436       344.5669081831305        427.32890332912956       391.905743883142         471.2542008151793        529.5754914681717        263.48927442628144
0.0036682415452802004     281.00540381001883       714.3621025301286        411.4067935085264        344.92128553734807       438.50519129055414       396.99254400605304       481.381163245061         512.9017116800361        280.0970773736404
0.0038260042077461216     276.6928802399011        713.661016009891         417.38601378748604       348.4928722104311        444.7952382872841        399.4851167271429        487.05799623479913       505.76497930586646       289.4243905283813
0.004595933498874077      293.6141718765671        729.9317900552377        452.1800212839965        391.11864739506484       480.2603986169241        409.9736109449479        519.6554720768718        487.21247029859336       343.55481421600535
0.004752088750935383      304.44310495663024       736.9673075685248        460.3710776974797        403.4199086346544        488.3168402335424        411.68648066141924       527.2553180695677        487.25680414623724       356.3793740194081
0.005194888167514959      336.5868471466545        676.2745922123618        413.5654869313871        416.728807285412         409.0886464274601        513.2169706235375        496.54459207087643       406.0355363979932        371.96414949494374
0.00582293255210413       355.03866003659385       712.6180875320781        406.8518118066258        436.75916512056955       402.9003086135052        522.3356931600935        456.13466357359584       357.52757501443193       414.46505941070285
0.006385772027551067      381.42442223665864       745.3628550851627        406.6884016748889        459.3810315924868        419.9546384819315        532.022866061985         422.8238071295169        335.176487244144         455.72503817811275
0.006773128716621089      361.67069992867414       607.0635925095264        501.3142058297661        389.6109784409186        446.77160979517515       486.53924213767596       263.7733316961141        428.6937478206357        393.5628910343826
0.007304591575109576      351.1210577044701        596.2364636804622        459.0594360910812        364.8534307281382        430.60681764478653       486.6892944100892        233.7015309377423        418.99478901792384       369.71308831483753
0.0073797674796735446     349.9159520307137        594.8505523177007        453.2566592927574        362.15446396031024       428.7432218930721        486.680718669701         230.65510379725225       418.7514246469959        366.7087995180164
0.007942702020450172      343.46475046670884       585.370214776854         411.5346222433985        347.6055812929373        417.87840951508724       486.2644858353363        219.29119420935962       424.28767862590604       346.4062310869356
0.00888175832368282       344.65651001108455       572.6490681486965        351.4342701175608        341.7473938076671        410.6056871501213        483.86656261268706       248.7143912199837        456.16812253141836       318.9435730079812
0.009056357157124686      346.7979089239917        570.7630402516925        342.0809160506214        342.6856530319974        410.5753439395853        483.17505070872346       260.2549213806674        464.6487813895154        314.65683346656095
0.009379321896051486      352.51808837706784       567.8055715746648        326.74166259338233       345.8282931764331        411.5091681869226        481.7147945245598        285.66795020412854       482.3378746317121        307.61530266946255
0.009502211504749499      352.5704117090294        463.4713115753516        270.3403209572618        354.69195431131044       387.56874637142835       454.74337512626386       298.2078553159501        490.4761410361198        359.13173815639783
0.009946468688734533      361.16896981410815       441.45760566035096       226.74886747413575       337.70002295420113       391.32016666317435       434.2910190016746        316.3222049362779        481.24394862004044       343.1109568002637
0.011743083332222905      444.22131573371314       394.0543995944943        216.54557173081645       266.2772759196451        382.49652036720045       370.39595939532114       487.74720478206194       521.4791271323205        319.731882581347
0.0118109522088639        448.4548712056607        393.48170481307096       222.35851194266448       263.5061232195198        380.96763220025144       368.6310447283678        495.283852771702         525.132599234512         319.7159391052402
0.012264445936843445      463.5433235243694        416.5731648630367        260.67349629214124       337.56260927678625       330.99913867210535       358.4235974159304        659.8821683411534        495.69500218826124       394.82014601875966
0.012417605310561517      473.6922177622279        412.2155486204278        266.6810366505604        347.1871340323351        330.09567787480995       355.7036554373216        673.4895224422446        502.6809016854673        397.9368715361894
0.012759203844596426      499.19488373292864       407.19595250704697       287.01303776503926       369.01090353275544       328.50080265623757       352.4093991067383        704.4509708701536        519.6613840936853        404.0036514176522
0.013589902496337548      583.6447453628678        556.9086543755235        563.7013658313218        362.8074061754852        378.43021667571753       305.8547612891762        802.0101717371418        594.6393125905378        366.2885572823413
0.014105559716453268      600.1008604902613        464.0837310598311        561.6342198053902        349.3741665298227        276.1392054556993        213.742294954653         636.953198650759         495.6476867694623        313.6407673802131
0.014153884318349325      597.0090868836011        462.43639537407734       561.0871393704472        341.7990614928655        273.8095656897536        211.6643545391214        631.4095036723787        492.42097386303584       307.7107333507995
0.014979509520301285      549.542839621689         442.20126836461424       555.6007509582726        226.08097155772558       243.63650940657004       190.671194818293         545.9617172562331        446.29025561007535       230.03014117292375
0.015045417372405055      546.1489421433675        441.14779729839324       555.3990441247006        218.3707198953316        242.0402492993148        190.08710083035433       539.9715237861683        443.22214859444045       226.0145517334145
0.015056813937137396      545.5674395181067        440.9730534135793        555.3666657974575        217.06888335475745       241.7767764689612        190.00077767176373       538.9493536200863        442.69917956920784       225.35622621494346
0.015679979503720957      515.999648151638         434.5226349751123        554.4080841234123        164.7120776712679        233.0840539488489        191.1612216657385        489.611804133823         416.9848326754734        205.74516098061298
0.016080798206248043      499.0590044440074        433.4114337016775        554.2213716136548        157.90459358308192       233.47439617027604       196.96910779215867       465.3389125435933        402.77380765869964       208.8160899506452
0.01676556437056637       473.38476643198817       437.25282263277995       553.7506920202197        195.87681655072333       244.74887253286394       213.67534537658793       439.0401611448795        381.4836441498891        232.98474278208232
0.016772783252534285      473.13504149473334       437.3362752499892        553.742027460867         196.51059325337513       244.93660833012777       213.89111128502924       438.8694128135123        381.27794287292136       233.31932244576114
0.01725439929098864       457.4722912250385        445.29128311760087       552.9146629604875        244.66283431399887       260.54739576073337       230.05870213495004       432.5414221923784        368.5922256374059        257.4779937877078
0.01728321386646177       456.5993491526162        445.9288641006225        552.8488090610082        247.8131073814975        261.6694400658477        231.13780973337177       432.4758360118803        367.9075630736795        258.99850296846563
0.018336510889307572      430.5954868541342        485.1375426994198        549.3860282390435        371.059918676896         316.25130247025936       280.28124703071916       452.25415847556235       352.5700058491908        314.4222037433836
0.018488752567931175      461.38157842824864       486.10203269799496       463.42301778801743       378.69679110204066       385.88989058592864       287.10465836280525       342.08604594823026       224.47689889953162       388.936479218605
0.01854636144964056       456.07419419997177       483.5093426501701        460.76912788295976       379.61800893455563       385.8762529219574        286.2222228253683        341.63076149985176       224.2796973249926        389.6692599481839
0.018945941592533103      420.92291409810065       466.21704496622823       440.8080913811119        388.1911799191022        386.9518615420079        280.36820183718106       338.4755262588992        225.08152501083885       394.2803373665465
0.020166513145029197      344.3721891189973        425.75003419554105       370.63845014508036       437.2383665743526        398.95693835877995       264.2355609115073        335.0041586233463        245.71013912959717       408.1762257279148
0.020605419234597834      335.4542604197024        419.04183582580924       348.57634552804643       462.80409158153805       405.0985505863742        258.8430736538487        340.4965720128102        259.4838451047973        415.9134848450866
0.020663028116307235      324.0523671956716        403.89917766932285       400.081773582465         402.0502707809804        347.4876163868246        229.1435168507326        353.81767906003535       236.51024729280982       397.20589914701935
0.02091163162188664       303.3391195281773        593.9767220188612        486.7403035734165        405.0919768680723        424.0038404529185        246.65547608565888       380.2069033117961        269.79862306003764       232.98613497944686
0.021063867144437365      299.36601109930893       588.803692263663         486.04003906218225       399.2473047851571        429.9494386211317        238.81303692400607       381.2094497928004        274.4385899157604        232.25907126946657
0.021304334013542012      294.71078704268473       582.473533844087         487.20570829996615       394.28597545936947       441.1856002534124        227.38608118397514       386.29935305061196       282.9558855484813        232.5002817177009
0.022300772260515758      240.3973342458787        595.3693883161296        509.87082216403934       271.4190670763232        283.51637532440117       148.60446129491592       362.01218141260966       349.0422510303201        284.59641662151466
0.022328057349341634      240.38353790910784       594.5591882406269        510.0262572427923        272.7069915212043        282.03800999361204       148.76348600550887       362.2273705053453        349.0852758410193        284.47639276020686
0.022494236682151596      241.09357815618154       589.7793714549493        511.1155092847668        280.86380569301735       273.24566925933374       150.12136005016552       363.6403211858913        349.4155505284851        283.938827603856
0.023366327261182658      260.4570088507484        566.8641427600079        518.2523433985608        323.8373059727549        233.79928798158625       164.41090839949314       371.16396051759926       351.52605701139345       285.74311785484986
0.023850386130257875      276.38436844094923       553.8129501815828        521.0847747932215        342.05475534644677       217.84966850113824       174.72174477740788       373.18633346608107       351.75916925964225       289.29984509318194
0.023987887167332404      280.9796586282788        549.8734810398404        521.5365849651499        346.07099570080317       214.27692370293732       177.7587418595063        373.2758629357026        351.6001638770154        290.55236543095697
0.02404137758713301       282.75298113647113       548.3059114907599        521.662379117893         347.4825001522286        213.01327811814707       178.9493214992349        373.24531290109184       351.5083339743455        291.0644112612045
0.02451334997351633       297.65202508728765       533.504886249621         521.4274660591383        356.0993505059721        205.2138455057094        189.6859073846584        371.2687769158448        349.9408071828496        296.0997009998084
0.02469225653478715       302.792658364252         527.4009982504825        520.6601752911075        357.51258139263865       203.96614348774867       193.90041854828982       369.6779343450095        348.9920309215317        298.2145219870234
0.024962433499910508      309.8736640488836        517.6523900419141        518.760323788181         357.6970198275664        204.02107374922184       200.5071860793466        366.37437135147405       347.21628956644486       301.5815773447497
0.0254                    319.38733689836096       500.60025599068814       513.8072869211           353.1394059686311        209.30256970727325       212.1683682216973        358.77073607806926       343.6196094893023        307.4041926078486
