% Model:              6inch_1inch_ALUMINA_only_WGM_Qtesting_1to5GHz_P_OF_1_PLOTGROUP.mph
% Version:            COMSOL 6.1.0.282
% Date:               May 22 2025, 12:59
% Dimension:          1
% Nodes:              68
% Expressions:        252
% Description:        Line graph
% Arc length (m)          Electric field norm      Electric field norm      Electric field norm      Electric field norm      Electric field norm      Electric field norm      Electric field norm      Electric field norm      Electric field norm      Electric field norm      Electric field norm      Electric field norm      Electric field norm      Electric field norm      Electric field norm      Electric field norm      Electric field norm      Electric field norm      Electric field norm      Electric field norm      Electric field norm      Electric field norm      Electric field norm      Electric field norm      Electric field norm      Electric field norm      Electric field norm      Electric field norm      Electric field norm      Electric field norm      Electric field norm      Electric field norm      Electric field norm      Electric field norm      Electric field norm      Electric field norm      Electric field norm      Electric field norm      Electric field norm      Electric field norm      Electric field norm      Electric field norm      Electric field norm      Electric field norm      Electric field norm      Electric field norm      Electric field norm      Electric field norm      Electric field norm      Electric field norm      Electric field norm      Electric field norm      Electric field norm      Electric field norm      Electric field norm      Electric field norm      Electric field norm      Electric field norm      Electric field norm      Electric field norm      Electric field norm      Electric field norm      Electric field norm      Electric field norm      Electric field norm      Electric field norm      Electric field norm      Electric field norm      Electric field norm      Electric field norm      Electric field norm      Electric field norm      Electric field norm      Electric field norm      Electric field norm      Electric field norm      Electric field norm      Electric field norm      Electric field norm      Electric field norm      Electric field norm      Electric field norm      Electric field norm      Electric field norm      Electric field norm      Electric field norm      Electric field norm      Electric field norm      Electric field norm      Electric field norm      Electric field norm      Electric field norm      Electric field norm      Electric field norm      Electric field norm      Electric field norm      Electric field norm      Electric field norm      Electric field norm      Electric field norm      Electric field norm      Electric field norm      Electric field norm      Electric field norm      Electric field norm      Electric field norm      Electric field norm      Electric field norm      Electric field norm      Electric field norm      Electric field norm      Electric field norm      Electric field norm      Electric field norm      Electric field norm      Electric field norm      Electric field norm      Electric field norm      Electric field norm      Electric field norm      Electric field norm      Electric field norm      Electric field norm      Electric field norm      Electric field norm      Electric field norm      Electric field norm      Electric field norm      Electric field norm      Electric field norm      Electric field norm      Electric field norm      Electric field norm      Electric field norm      Electric field norm      Electric field norm      Electric field norm      Electric field norm      Electric field norm      Electric field norm      Electric field norm      Electric field norm      Electric field norm      Electric field norm      Electric field norm      Electric field norm      Electric field norm      Electric field norm      Electric field norm      Electric field norm      Electric field norm      Electric field norm      Electric field norm      Electric field norm      Electric field norm      Electric field norm      Electric field norm      Electric field norm      Electric field norm      Electric field norm      Electric field norm      Electric field norm      Electric field norm      Electric field norm      Electric field norm      Electric field norm      Electric field norm      Electric field norm      Electric field norm      Electric field norm      Electric field norm      Electric field norm      Electric field norm      Electric field norm      Electric field norm      Electric field norm      Electric field norm      Electric field norm      Electric field norm      Electric field norm      Electric field norm      Electric field norm      Electric field norm      Electric field norm      Electric field norm      Electric field norm      Electric field norm      Electric field norm      Electric field norm      Electric field norm      Electric field norm      Electric field norm      Electric field norm      Electric field norm      Electric field norm      Electric field norm      Electric field norm      Electric field norm      Electric field norm      Electric field norm      Electric field norm      Electric field norm      Electric field norm      Electric field norm      Electric field norm      Electric field norm      Electric field norm      Electric field norm      Electric field norm      Electric field norm      Electric field norm      Electric field norm      Electric field norm      Electric field norm      Electric field norm      Electric field norm      Electric field norm      Electric field norm      Electric field norm      Electric field norm      Electric field norm      Electric field norm      Electric field norm      Electric field norm      Electric field norm      Electric field norm      Electric field norm      Electric field norm      Electric field norm      Electric field norm      Electric field norm      Electric field norm      Electric field norm      Electric field norm      Electric field norm      Electric field norm      Electric field norm      Electric field norm      Electric field norm      Electric field norm      Electric field norm      Electric field norm      Electric field norm      Electric field norm      Electric field norm      Electric field norm      Electric field norm      Electric field norm      Electric field norm      Electric field norm      Electric field norm      Electric field norm
0                         157.70045677587015       316.8890611898089        148.66036294991335       58.95556506014333        160.74396182604974       154.5385250659343        289.93320358753704       274.9705153601568        173.73682925851833       32.720768157647996       280.09753336215425       315.55894519401505       527.1753054121689        330.86849685761723       180.74793811519535       445.0113753153282        445.5509786135095        373.8143510128129        314.3346736721621        239.38231333064178       64.01951396988403        64.14791067175011        380.700425973718         0.6024618215003781       0.5199569993125917       0.31542886061764436      0.5030464315889721       306.1587658967077        167.8875912164495        284.1898354370714        282.9541195326539        216.31395496092998       70.47177410520707        67.03880037834624        179.30513415138145       171.54968735572763       45.4564077143769         307.08759428998894       329.70608119028424       67.42353218380771        104.46164288418646       139.65816155325888       610.7698935311677        13.708329796030123       11.840408072589389       15.483173387467776       13.622615151158845       68.78327532838223        53.03295595522607        21.55795865123493        21.860717938768634       121.19610060488748       74.69054286085037        21.438149301540236       43.07764462378333        222.07081890464906       356.63241272487204       443.8259118166229        443.3098313819505        102.04178167891128       72.12457249574386        55.408559549422776       9.480176646060345        13.009590046191757       11.497683100564116       6.854498287809748        193.22081605943066       338.2403752998723        62.4386605698043         40.792261587485584       0.6033816157853436       0.4072580138419813       0.3985349549649365       0.2380436249598538       0.4445470957160551       0.5471768765700098       1.140549303652987        0.7458260435215404       461.9566619769865        168.29030833488846       284.9679398788128        281.7380468699123        50.71362226399691        23.5528900418972         214.37491336533392       301.36451321417616       427.27636217760687       463.41150703512034       35.70658363025623        431.2738700989856        187.52810121347585       35.21727920065547        19.322712585542245       60.81783739430694        46.364470228189894       68.13933219958524        245.73839078396136       34.74355596344122        224.48525231211602       186.29713038982493       183.18589342088944       52.19982746289504        95.98904062849833        8.451272937497125        8.388402810488998        9.391273683322007        6.817182325824859        112.34257593529277       298.7879576249502        227.35765676414573       95.0352717033926         73.65689303861848        400.67891388583314       521.8367865681463        32.13898307246028        29.017831814805394       90.12145533877603        90.72742833792228        32.07915302498735        30.435586825212813       29.2558713342964         58.41217187318236        71.89712206761111        75.60150353647693        114.22701204896165       0.49316664783733405      0.6122702227158883       0.42472435343096865      0.3041418461941829       4.454965693498344        9.137158876363394        188.61037100386622       348.27201587916176       5.769234321762574        0.6178988834205539       1.0620007490245156       7.134066188124577        0.5907149774874021       2.6268715093313326       84.75532319632448        14.33079714328676        305.7312920762938        260.22808229962726       107.31264801366453       62.9285789404851         413.01945724372445       182.09996541424468       484.44641587087256       389.009068357214         13.729597867195602       15.950546280924861       332.6447580289847        316.01694399599376       368.8306352688447        48.49515986531096        64.418604008846          89.23177788935291        261.5295376947689        280.75539914358313       150.97620899682275       168.49227900982487       236.58807281719427       309.2826379856134        547.4112041113391        389.4323212086435        20.47035233215332        30.30499909336197        194.4402736656189        191.9875228604477        21.066010565832748       14.386060674678472       38.712688533922          39.13915586868255        4.858554655449291        5.7600248225952555       4.064496458805152        5.011125019846423        47.7935410123578         26.969814945067736       45.04924739005755        23.914497224240602       26.79686169234953        140.03937126348916       304.8138618393017        30.358012324406722       38.51062102182091        38.806386603392646       47.629799026225456       80.24815170286575        36.26545511834024        210.0241345453855        0.4953052044830117       0.5438664073801769       0.6563362080976214       0.5096685730463917       96.77370156978836        269.8125286872874        92.12719296139274        91.04430404906009        164.64374087433293       105.82362987788089       100.22165442339335       124.66878673034121       46.79489952746416        65.46493070734687        1.0081711919789726       0.8381827615672296       1.5548438897201378       0.8014130414540882       110.26764995055433       103.50266728947052       224.75077561741372       344.27242667762874       158.52805701109753       578.5321400216062        270.1614827376467        332.0189842193873        142.2249531409006        123.76352191741886       167.8546995050485        197.38957463839645       361.26773153406566       177.61174566472727       299.7868197770521        391.0819238089082        457.2965576839589        502.1684594189444        61.77122221475686        53.79542921323866        313.1238413403995        292.889212442831         93.05059027115931        411.47223723824277       82.61846384495954        324.73081743121395       191.28611438043444       81.01229717927274        111.21981312960648       157.90202597405434       189.75111382421872       195.21187391603692       154.5306258714462        72.09109203807445        194.18859394172608       260.58338063992267       210.78516403750544       213.81574072642556       156.91427022646323       107.2657492868126        316.7400897449049        175.2921148618972        244.82018000366858
3.4674882840211516E-4     159.5711266328703        317.40939194186103       157.45047594993065       61.64699157271021        159.915062801455         160.7165936553803        298.9153736244072        286.8497267774505        181.36263065751973       33.93962442586223        284.0662133567513        319.06330653839956       531.1387165925964        340.1829480768399        182.08027584973536       455.0549419680655        452.9494514756207        379.7050574647994        315.75857175941997       243.12012841383134       64.95287783512026        64.91228128755704        390.157598768038         0.5969097932632758       0.5455586972468451       0.32168920276836244      0.5079451218414331       306.67673794548784       172.3186135344282        296.73513583020724       293.2608541910102        216.86994977984537       69.53179226661487        66.87257118460822        179.91861602352648       178.8088212321627        43.486907728010564       310.90483906667095       336.0832000140446        70.15994809906094        110.30151599086427       168.4397220892836        614.3580048516995        14.029771605312817       12.105928950227854       15.57722654629544        13.798146213876633       65.53337954106114        51.642776202333465       22.15603928379899        22.444873564214493       125.8704827406534        76.6361768071243         21.84066400472271        43.15965425691827        225.33621501806041       365.53842254766033       452.941472183388         452.57326902768307       106.52296925050364       69.52819289799882        53.77267309807357        9.390551527041968        13.242851179366337       11.655602437593817       7.0221768948372825       197.143709728724         340.6439531419982        60.46823522452275        39.56608004329886        0.6057987191984965       0.4096170764577529       0.3920362692606921       0.24176105049223912      0.4380053119754414       0.5423007711670742       1.127183626164461        0.731796553667258        476.13172309122507       171.9130668781239        297.491467247629         294.0751227037021        51.84909065239389        24.206570604562557       220.8259157117099        302.20825119799133       436.37667803525426       472.01906454258966       36.667173661115804       440.7409940869119        189.1568561892423        36.19396011187342        19.613059681331713       62.51786935696721        47.45232694457962        64.72619753391376        247.76327594836638       33.074532038655256       226.97133809525846       189.38428072333033       190.06974449507533       51.58204819879314        92.28225863359005        8.55431591866259         8.499040243606357        9.481261767573134        6.974618951332759        107.90421429615394       305.5669673873155        231.79935880454966       92.53601913629046        72.04316876025554        411.34656114691796       534.2655162979423        32.38107749828047        29.570322689977786       86.52507779705043        87.1216214044152         32.363115803538804       30.72301491106716        29.481108874310134       56.15791948485385        74.42955128106799        77.370089555235          108.81565947217382       0.49249798869217304      0.6216426543326229       0.4209229640998301       0.3065714277392339       4.571006168986911        9.299150222445979        193.2872279152076        351.46082730648743       5.711054703364364        0.6037646931604005       1.0791233555432442       7.226475867027591        0.5885260115133553       2.543540315744445        89.58446798246234        12.996003014030057       322.0066164007254        270.45699076511045       104.67182769324683       62.232387467177695       427.13039130716015       187.30679507002748       493.01262957429964       401.84819603385125       13.329794753623414       16.091031567437124       344.78858574232436       324.3858037712688        376.54371896298204       47.61055860778933        61.89831123493336        86.87620562204783        266.92830572948566       284.02606942926093       147.7822695879551        164.03589007411324       243.10536515587128       315.23571893218656       562.0673176726664        402.11137034008897       20.699170649962543       31.10761180751944        200.4442691750112        198.2978434210096        21.375001521182753       14.725169826151369       39.58580997664834        40.16304781718292        4.9788040844055175       5.850896354027467        4.194777517481524        5.144220076752783        46.28464965275053        26.86392226714411        43.637572177677136       24.135703679688177       27.35655506443581        145.31946200297435       307.9964330454099        31.403101384978175       39.82646358749707        40.38035000264641        48.0923978472851         78.726863557196          36.67440801794957        212.9150871122731        0.5199296910887723       0.5573430946613473       0.6627601155193823       0.5081015112894365       94.21865383548071        261.40586662458975       90.24986059804326        88.07744625895286        150.98498891702434       110.79971468998161       98.57007749910824        122.169270472678         45.89809376258519        64.34689310876247        0.9935341070697057       0.8213905774200417       1.5315894214097272       0.7866799065435848       108.23000910173646       101.59380863212726       230.29177282514718       348.2966302334791        191.9101172068351        585.9438847540505        279.7331681361207        349.9538160823596        139.89502703313084       121.52273164702534       161.98445578061273       185.67154149995534       375.30496683886264       184.00424762314483       305.84823905896155       403.2003537177343        473.09158153716834       518.0721100443693        57.22817444745414        49.89789579362107        320.38506171327566       301.37907707951047       91.61239325519627        429.03465854351754       85.82261368907129        326.45936520725314       201.35174405981314       78.54522222056914        109.79883348270056       156.01490516195744       198.27747328668065       200.16776249491554       152.09475349189606       70.92395667899925        189.8972845012442        256.21964031607746       214.83683009280168       217.28775361291545       156.9012725738943        103.06819491974406       309.5077846353972        172.27763493966646       238.2035981089683
3.5869766057380903E-4     159.6307108971987        317.42147280951065       157.75528867092575       61.741093913351214       159.88412997302655       160.92842027743637       299.22130208289576       287.257288464209         181.6259582888722        33.98200624172076        284.2013015770993        319.18666227428383       531.2588670041848        340.5169077253194        182.11901819513264       455.3838844932101        453.1878817786948        379.89338619718364       315.8047338400735        243.24146729851736       64.98421769608056        64.93768301320804        390.4682150175453        0.5966890887825206       0.5465013383896353       0.3219026015296412       0.50811085006074         306.68704081290076       172.4640158947358        297.1647386399447        293.61369391335137       216.88226711161286       69.5130413680767         66.87634567591006        179.93726250558277       179.0588838324054        43.41982714783855        311.03754078518847       336.3025645632293        70.25870483202183        110.51766574538          169.4529126778926        614.4488384519107        14.041435158747401       12.115368094671165       15.58017399527191        13.804907203065481       65.42246431921482        51.59560374575459        22.17686265507892        22.465323191189427       126.03334133701716       76.707232933495          21.855127438410648       43.16347719570396        225.43935763291162       365.8307402441068        453.2377946877141        452.87340491062486       106.67800224102484       69.43875003738854        53.717074193073316       9.387507689532086        13.250684211022318       11.660837640885092       7.0282650393703845       197.26907131801002       340.72311725586457       60.40069280683362        39.524166210866255       0.6058698628554854       0.40972405493842534      0.3918173710895516       0.24190248051663196      0.4378003981831181       0.5421625293444893       1.126714832775039        0.7313209935657788       476.5996872593459        172.03004626617303       297.921904267203         294.4968730225301        51.887201620127925       24.228824354620137       221.03901009636445       302.22772297365225       436.6876503900066        472.3096282397865        36.699030206144755       441.0725847520726        189.20005051106241       36.22942779403347        19.623949954817068       62.57601715323252        47.48953038820434        64.60885346910747        247.8221881060939        33.017176619493          227.04763082516158       189.48957377147005       190.30802107706808       51.56145525018534        92.15427699303484        8.55778761290935         8.503589063931594        9.484643420268414        6.980175318336842        107.74995878388152       305.78825659878646       231.94193725648046       92.45081700754926        71.98823460321137        411.69599318620624       534.6705089622047        32.391171139213434       29.589951678289204       86.41105142435447        87.00873468181759        32.373146168702654       30.73417453130462        29.489868522735026       56.08927879109894        74.51973314464453        77.43440143921013        108.65115832780252       0.4924704570472641       0.6219572470536903       0.4207962045804772       0.3066892054543662       4.5752476695667506       9.304534071213682        193.43766448126317       351.5652704885044        5.709097667939211        0.6032906750362275       1.0797377062924407       7.2296190074163595       0.5884351433382037       2.5407138370700326       89.75668663035685        12.953322865469497       322.5671362340994        270.8050116516399        104.58301197999883       62.210879946683605       427.5968316951692        187.47622020687436       493.2898839707297        402.30372245004804       13.316446556369065       16.096380078739504       345.19061478413806       324.66865476536896       376.8121981808046        47.5810557498069         61.811550237567275       86.79358289032366        267.104822918035         284.12797737265726       147.6713641726297        163.880765191575         243.3184482903361        315.4269127553451        562.5441073240025        402.53228249497954       20.707560023040077       31.135646035839137       200.65142700177046       198.51671079990803       21.386582815848154       14.742779314541435       39.61485026925254        40.19736143842477        4.983415082467072        5.853790714171603        4.199263747947839        5.149068279546726        46.23255103103105        26.8612052854931         43.58890829571486        24.145229930941927       27.3762664358946         145.49437573950857       308.08940728704425       31.439504076837622       39.87188104582599        40.435968303613606       48.10778890503446        78.67629252112683        36.6899708895281         213.00250896028373       0.5207758361348368       0.5578347814447508       0.6629811684572753       0.5080500179006703       94.12824942337055        261.1085154758217        90.18639057383179        87.97575006622318        150.5055967286826        110.97263222530576       98.51038055522751        122.08065750076149       45.866917175140934       64.306668922528          0.9930347451461278       0.8208085452097063       1.5307658784550722       0.7861679787801362       108.15651972108095       101.52654515403208       230.4716946117742        348.42790731394615       193.10063623552904       586.1550504107917        280.0560850991089        350.57144261393825       139.81112803346076       121.44355183188367       161.78644010957004       185.2657302454724        375.7696750785459        184.21482383926332       306.0565511477431        403.6146409569117        473.6158418243046        518.5922151677028        57.07302251592629        49.76770954326743        320.6203369025884        301.65635964050597       91.55793672133865        429.61734998518295       85.9282794445228         326.5040326143036        201.6869510472018        78.46096324707959        109.74790757010722       155.94558214692813       198.57444918228012       200.33851093351575       152.00330173638665       70.88038345861558        189.74665785239068       256.06265915367464       214.9640613695819        217.3942126303813        156.89582762087082       102.92340729125048       309.2462832261284        172.1660558412937        237.96562842559155