% Model:              6inch_1inch_ALUMINA_only_WGM_Qtesting_1to5GHz_P_OF_1_PLOTGROUP.mph
% Version:            COMSOL 6.1.0.282
% Date:               May 22 2025, 13:00
% Dimension:          1
% Nodes:              68
% Expressions:        252
% Description:        Line graph
% Arc length (m)          Electric field norm      Electric field norm      Electric field norm      Electric field norm      Electric field norm      Electric field norm      Electric field norm      Electric field norm      Electric field norm      Electric field norm      Electric field norm      Electric field norm      Electric field norm      Electric field norm      Electric field norm      Electric field norm      Electric field norm      Electric field norm      Electric field norm      Electric field norm      Electric field norm      Electric field norm      Electric field norm      Electric field norm      Electric field norm      Electric field norm      Electric field norm      Electric field norm      Electric field norm      Electric field norm      Electric field norm      Electric field norm      Electric field norm      Electric field norm      Electric field norm      Electric field norm      Electric field norm      Electric field norm      Electric field norm      Electric field norm      Electric field norm      Electric field norm      Electric field norm      Electric field norm      Electric field norm      Electric field norm      Electric field norm      Electric field norm      Electric field norm      Electric field norm      Electric field norm      Electric field norm      Electric field norm      Electric field norm      Electric field norm      Electric field norm      Electric field norm      Electric field norm      Electric field norm      Electric field norm      Electric field norm      Electric field norm      Electric field norm      Electric field norm      Electric field norm      Electric field norm      Electric field norm      Electric field norm      Electric field norm      Electric field norm      Electric field norm      Electric field norm      Electric field norm      Electric field norm      Electric field norm      Electric field norm      Electric field norm      Electric field norm      Electric field norm      Electric field norm      Electric field norm      Electric field norm      Electric field norm      Electric field norm      Electric field norm      Electric field norm      Electric field norm      Electric field norm      Electric field norm      Electric field norm      Electric field norm      Electric field norm      Electric field norm      Electric field norm      Electric field norm      Electric field norm      Electric field norm      Electric field norm      Electric field norm      Electric field norm      Electric field norm      Electric field norm      Electric field norm      Electric field norm      Electric field norm      Electric field norm      Electric field norm      Electric field norm      Electric field norm      Electric field norm      Electric field norm      Electric field norm      Electric field norm      Electric field norm      Electric field norm      Electric field norm      Electric field norm      Electric field norm      Electric field norm      Electric field norm      Electric field norm      Electric field norm      Electric field norm      Electric field norm      Electric field norm      Electric field norm      Electric field norm      Electric field norm      Electric field norm      Electric field norm      Electric field norm      Electric field norm      Electric field norm      Electric field norm      Electric field norm      Electric field norm      Electric field norm      Electric field norm      Electric field norm      Electric field norm      Electric field norm      Electric field norm      Electric field norm      Electric field norm      Electric field norm      Electric field norm      Electric field norm      Electric field norm      Electric field norm      Electric field norm      Electric field norm      Electric field norm      Electric field norm      Electric field norm      Electric field norm      Electric field norm      Electric field norm      Electric field norm      Electric field norm      Electric field norm      Electric field norm      Electric field norm      Electric field norm      Electric field norm      Electric field norm      Electric field norm      Electric field norm      Electric field norm      Electric field norm      Electric field norm      Electric field norm      Electric field norm      Electric field norm      Electric field norm      Electric field norm      Electric field norm      Electric field norm      Electric field norm      Electric field norm      Electric field norm      Electric field norm      Electric field norm      Electric field norm      Electric field norm      Electric field norm      Electric field norm      Electric field norm      Electric field norm      Electric field norm      Electric field norm      Electric field norm      Electric field norm      Electric field norm      Electric field norm      Electric field norm      Electric field norm      Electric field norm      Electric field norm      Electric field norm      Electric field norm      Electric field norm      Electric field norm      Electric field norm      Electric field norm      Electric field norm      Electric field norm      Electric field norm      Electric field norm      Electric field norm      Electric field norm      Electric field norm      Electric field norm      Electric field norm      Electric field norm      Electric field norm      Electric field norm      Electric field norm      Electric field norm      Electric field norm      Electric field norm      Electric field norm      Electric field norm      Electric field norm      Electric field norm      Electric field norm      Electric field norm      Electric field norm      Electric field norm      Electric field norm      Electric field norm      Electric field norm      Electric field norm      Electric field norm      Electric field norm      Electric field norm      Electric field norm      Electric field norm      Electric field norm      Electric field norm      Electric field norm      Electric field norm      Electric field norm      Electric field norm      Electric field norm      Electric field norm      Electric field norm      Electric field norm      Electric field norm      Electric field norm      Electric field norm      Electric field norm      Electric field norm
0                         58.41217187022425        71.89712206950882        75.60150353475994        114.22701205310061       188.61037100009523       348.2720158796871        84.75532319667552        14.330797143243258       305.7312920741643        260.22808229922026       107.31264802126393       62.92857893127239        413.0194572455665        182.0999654234334        484.4464158454064        389.0090683564634        332.6447580291346        316.016943980032         368.8306352695553        261.52953769518456       280.7553991427295        150.97620899963476       168.49227901794325       236.5880728186105        309.2826379863172        547.4112041042889        389.432321213853         194.44027366425112       191.98752285914458       4.858554655443097        5.760024822660944        4.064496458638786        5.01112501961775         140.03937125287158       304.81386184154684       80.24815170264871        36.26545511610726        210.02413454522437       0.4953052042673686       0.5438664074164713       0.6563362086038066       0.5096685730604872       96.77370156912264        269.8125286924978        92.12719295983713        91.04430404824349        164.64374087478538       105.82362987729083       100.22165442391437       124.66878672844358       46.79489952570461        65.4649307076733         1.008171191826342        0.8381827615180043       1.5548438896482994       0.8014130407803584       110.26764995143182       103.50266728684896       224.75077561173413       344.27242667613046       158.52805702026748       578.5321400085112        270.1614827322245        332.01898422066733       142.2249531386617        123.76352191853957       167.85469950138952       197.38957463756762       361.2677315342445        177.6117456534443        299.78681978208886       391.08192380680055       457.2965576991281        502.16845942341473       23.466466300023292       23.887633492447627       61.77122221506279        53.79542921279325        313.1238413415127        292.88921244342606       93.05059027112348        411.472237238416         82.61846385374231        324.7308174339916        191.28611437682525       81.01229717915997        111.21981312548655       157.90202598031996       189.75111382306096       195.21187391593017       154.53062587231605       72.0910920457472         194.1885939376016        260.5833806376343        2.8215357078226604       2.583847936833972        2.6203098829437708       2.0692010515231014       20.746599254140495       19.07739352279843        19.550877087057657       31.68273030977618        30.907338892636048       53.89438075519437        68.3721277793233         67.43150464043052        1.582855287175755        1.5781054682026403       1.0546076926160532       1.0938489490649945       49.023818735065106       52.82718824471103        59.40131302980261        210.78516404283093       213.81574071932204       35.09057917919061        156.914270224564         107.26574928570581       316.7400897461723        175.2921148648471        244.82018000331024       524.314583781623         304.77554722410304       206.7853419697867        159.08954783857487       0.7243098642445613       0.7258420698695295       0.9019249636460912       0.9444418458839745       234.10155623631155       333.7730300761017        272.1030630991959        90.48249699770682        242.48745556822558       191.60081426107976       305.5065743929606        285.8426480568959        367.3907217983201        175.1684174139107        27.854808789916415       28.828636182578467       413.97271537987854       535.907841632699         180.0668866488974        282.6438227894592        230.82389612466665       195.43748599543883       479.02666134757027       0.9262751008737165       3.0928050478671048       2.3488953358579114       4.399746602173171        117.52672624296486       123.1528009593331        334.710003137873         299.78234826735616       79.91242641842736        42.059495291976106       60.044027799896114       92.58535153670688        27.75007900324197        24.409839020648487       196.44525871804805       278.28622399571276       192.92345502599284       18.321483687410474       339.3813596781928        147.64483109844952       191.03494563668175       320.15640689453426       198.28874375453393       0.8614590780901417       0.6782591710699057       0.903434293104108        2.1279751987073374       269.5094853192285        238.297718649058         3.0223780788527734       2.9463993714141647       0.6998703292994587       1.4048841739642175       16.649316887249917       17.631561071262837       258.7673900824161        40.66624868662464        15.98527362002529        293.3534833113693        68.17696343283806        55.16843587400031        55.145643088503505       132.67213871560438       141.545798344427         26.69401834435714        20.937115020210374       376.785354411839         198.48532233818682       261.677660025801         546.0269519291072        226.39357157093158       93.24274625084145        265.34123758730277       295.12051243738136       183.97928348916832       214.00417200188974       453.14404756849575       326.7070688994524        212.47335807041534       248.8977456233052        0.8573756576755514       0.6076988813563629       0.6892641111315404       0.6497102249767899       56.22821252480102        56.11545191250155        524.6597600093331        418.2974490268105        180.7880741865754        429.528392850622         209.63602266745437       142.78929704004756       135.8367878887648        205.17728786525674       376.40056323667875       199.8978685363582        328.8171022439811        342.1771213648491        160.61377378687234       339.8234430431033        402.06602035748847       313.77840285281655       358.81558939774146       308.36285472588776       352.67265457394996       387.2081115714898        187.08745560363576       68.78346954467935        121.7757619871901        191.43156975863377       190.02920581479347       219.48229884734883       193.44711179303707       186.58165908970452       125.42673323502866       201.17818393304347       471.5126969529633        304.5228815596507        169.26059283835548       435.8405966482113        173.74727692436423       239.1575096591151        394.24849684418774       240.1817477641762
3.4674882840211516E-4     56.15791948087177        74.42955128327678        77.37008955382947        108.81565947572577       193.28722791141757       351.46082730702          89.58446798282951        12.996003013994502       322.0066163982879        270.45699076467196       104.67182770052618       62.2323874585682         427.1303913091166        187.30679507959002       493.0126295495022        401.84819603316885       344.78858574248517       324.38580375478614       376.5437189637088        266.92830572983866       284.02606942848826       147.78226959058324       164.03589008171554       243.10536515728555       315.2357189328775        562.0673176655354        402.1113703453376        200.44426917337074       198.29784341893446       4.9788040844049          5.850896354096336        4.194777517310856        5.144220076526713        145.31946199261412       307.9964330476709        78.7268635569876         36.67440801585094        212.91508711211364       0.5199296908829014       0.5573430946933957       0.6627601160383723       0.5081015112987548       94.2186538348577         261.4058666296407        90.24986059603161        88.07744625788445        150.98498891735775       110.79971468957649       98.57007749962018        122.16927047082537       45.89809376085524        64.3468931090813         0.9935341069159206       0.8213905773659375       1.5315894213358017       0.786679905885549        108.23000910262874       101.59380862960909       230.29177281946258       348.2966302319509        191.91011721411027       585.9438847406487        279.73316813062473       349.9538160836211        139.89502703084486       121.52273164811645       161.9844557776251        185.67154149904084       375.30496683905164       184.0042476113353        305.848239064148         403.20035371556554       473.09158155234405       518.0721100488685        23.835142825912673       24.564809572824117       57.22817444776795        49.89789579316573        320.3850617143501        301.379077080097         91.61239325516406        429.03465854368767       85.822613698288          326.4593652099629        201.351744056462         78.5452222204324         109.79883347860951       156.0149051680554        198.27747328485836       200.1677624949981        152.09475349276244       70.92395668655067        189.89728449716773       256.21964031380503       2.9005035376981163       2.6524159876855493       2.6545985489046524       2.1208950962860125       21.281902193153716       19.287988778825362       20.33762900002651        33.30974493852737        30.999220067363765       53.215603814505215       67.03098220062552        66.10989337742224        1.6163761978418003       1.5915423427336164       1.1045762330765285       1.1434182664469321       49.77962514692585        55.57153652668302        57.93145173438467        214.83683009810477       217.28775360583745       36.0955570471366         156.90127257190144       103.06819491848564       309.5077846366895        172.2776349425395        238.20359810863135       535.1884874217458        323.91185914886967       210.24728676152603       161.9719748667337        0.7331497181373594       0.7315464017848313       0.910634620391425        0.9473200310665056       243.33738238485157       353.75220455561777       268.3293764517034        89.13852704872103        230.15152482479076       187.8251851959092        312.4181394455369        290.1734830756559        348.4049690797968        181.59638386521948       29.655839765271825       30.36663749341999        432.1259149754718        553.0693049212107        187.30053761235237       295.0224227840518        227.6683049009039        197.91445379806376       494.81971811538824       1.0993735460605285       3.1199383850754856       2.406182041646516        4.417869479058581        117.08021190699962       122.44744744992099       342.55892079120275       312.4395467043163        79.33573487407946        41.75456646887822        59.277899411983405       93.07913186804623        27.88423626112768        25.324879002530007       194.30870207578815       270.2676826383842        188.07804324326878       17.542641276184526       337.94895762233875       154.88096049685785       193.26709481470505       335.7382388765993        209.67594000066566       0.8610849739380686       0.7112477847843728       0.912242018828476        2.131923874398546        274.08279421795777       243.29291473602          3.1365027054255914       3.077036521670561        0.7314261862159585       1.4110975122279104       17.134629185890788       17.646689118048176       271.059489660654         40.516274340983195       16.392214023944717       290.91140396372407       67.0754235924488         55.27263525990443        54.9636495888762         132.03337209442327       141.236198434492         25.82930076696739        20.740970782616635       367.97840752601314       194.0791755734165        286.7703230359269        556.994416359576         223.20195822358397       92.22077798393516        262.59576838818833       288.51849099716577       188.5297712448795        218.48801244581514       438.18534798684584       346.6469364827872        221.65546603352485       258.64260629125994       0.8856038145898356       0.6404260723559609       0.7276405900360712       0.6813323008097055       58.99465293553328        58.168848273297755       542.6294260577531        439.8534430502859        191.6919994037635        409.71606149049876       217.8370865344706        148.90561172442523       140.47737210598893       210.40425953334397       384.4697866869232        204.95038237323257       325.7926151291895        339.0279621334808        165.47152849614307       353.133605419985         414.5634452753251        314.22739429743785       351.1786844826856        324.84829950903566       360.38802791592946       389.5062084797893        183.99718814515697       68.68050113213003        122.57092302645196       190.7536392656761        204.53378460064462       230.59221316189624       204.09637119440674       183.03947344275443       126.04048942810223       199.41978306841966       463.0965528917403        308.64356342420075       176.78953749863447       450.72116217753836       174.05810413113718       239.23889724966807       412.0140209338494        247.56007070329096
3.5869766057380903E-4     56.08927878708118        74.51973314686344        77.43440143781386        108.65115833133491       193.4376644774724        351.5652704890371        89.75668663072456        12.953322865434357       322.56713623165126       270.8050116512003        104.5830119872671        62.21087993809476        427.59683169712935       187.47622021644943       493.28988394596115       402.30372244936854       345.1906147842992        324.6686547488675        376.81219818153204       267.10482291838576       284.1279773718874        147.6713641752513        163.8807651991589        243.31844829175026       315.4269127560356        562.544107316869         402.5322825002293        200.65142700012063       198.51671079780616       4.983415082466655        5.853790714240567        4.199263747777036        5.149068279320756        145.49437572915755       308.0894072893056        78.67629252091872        36.68997088743407        213.00250896012432       0.5207758359293031       0.5578347814766034       0.6629811689766614       0.5080500179098291       94.12824942274902        261.1085154808671        90.18639057180489        87.97575006514626        150.5055967290115        110.97263222490675       98.51038055573916        122.08065749891044       45.86691717341207        64.30666892284657        0.9930347449922912       0.820808545155436        1.5307658783810882       0.7861679781226472       108.15651972197331       101.52654515151804       230.4716946060893        348.427907312417         193.10063624274468       586.1550503973804        280.0560850936109        350.57144261519926       139.81112803117352       121.44355183297361       161.78644010660608       185.2657302445549        375.7696750787352        184.21482382743608       306.0565511529348        403.61464095474076       473.6158418394791        518.5922151722024        23.852254465266594       24.593610930441894       57.07302251624024        49.76770954281197        320.62033690366155       301.6563596410922        91.55793672130659        429.6173499853529        85.92827945375399        326.504032617011         201.68695104385924       78.46096324694193        109.74790756601743       155.94558215302015       198.5744491804349        200.33851093360502       152.00330173725288       70.88038346616244        189.74665784831618       256.06265915140284       2.90347350335388         2.654768288432218        2.6558712166558673       2.122838520732885        21.300974426430965       19.296965892416946       20.365608440895315       33.36416553802473        31.003122135131136       53.19248076658969        66.98303408307589        66.06266245957427        1.6174828363280949       1.5919874241745173       1.1063498807526495       1.1451934665924253       49.80475626407494        55.66962350322877        57.87956672081528        214.96406137488384       217.39421262330472       36.13311683205574        156.89582761887496       102.92340728998691       309.2462832274215        172.16605584416396       237.9656284252554        535.5339279567202        324.60386620165264       210.35192773690832       162.06023155754332       0.7334365534741392       0.7317368007971586       0.9109102883278103       0.9474019636230453       243.65053202391312       354.4412073821638        268.1845111156832        89.08882906938803        229.71725506674676       187.6974099027811        312.6454726387807        290.31403354461554       347.7245444902027        181.8224652646316        29.71983423273943        30.421388052640346       432.7366921284096        553.6273245651582        187.54085492616156       295.4342883103486        227.54545343109476       197.99057963645024       495.35919941952653       1.1056988855128471       3.120852666223477        2.40820832141572         4.4183091639363665       117.06159799178519       122.42042522194151       342.8105109489377        312.86075792658994       79.31297547267697        41.74267083510587        59.251110973343884       93.0937764017756         27.89296975289912        25.36267702831612        194.2239571480432        269.97709236940756       187.90531709291554       17.521577055102743       337.88843058337545       155.12131036581212       193.341816848554         336.2568074838769        210.07237588819575       0.861226229770561        0.7124449898788698       0.9126180216126889       2.1321554822914517       274.22651644109436       243.45273576825838       3.140394893215241        3.0815961618479353       0.7326763137757539       1.411415645148977        17.151852211762332       17.648505993596714       271.46779744299266       40.51054575616408        16.40697262925848        290.81010744934207       67.03574544582885        55.27670292985149        54.955264065695424       132.01133920632498       141.22286351767153       25.79963028487098        20.733754369572832       367.6550846078775        193.91608946549624       287.6915939901445        557.3262897025569        223.07765472421926       92.18002006868167        262.49053295112446       288.26798386771435       188.67408938222565       218.62750626091838       437.6359666611776        347.33454469239047       221.97924767562216       258.9750572419895        0.8865774848947396       0.6416119943121907       0.7289269100513166       0.6825050349666998       59.096275848214034       58.243611973809266       543.2145243564739        440.5808245474204        192.07214334932405       408.998465679424         218.11523668702517       149.11044955362584       140.62695066636803       210.56680860980774       384.7348587146543        205.1128174486049        325.66251519606294       338.8927010172765        165.62404491976784       353.581887932884         414.9911321880397        314.22115397291276       350.89395464667643       325.4005268384671        360.6315123688167        389.570129296186         183.87800225125275       68.67609520971436        122.59472127415391       190.7233308209737        205.03854863376537       230.96268226944196       204.451824554911         182.91252575895845       126.06619146465404       199.34598976615675       462.77652180548193       308.7659014002237        177.03868123809343       451.21743812993503       174.05859017699063       239.22626598337436       412.63502890483085       247.81679047528723