% Model:              6inch_1inch_ALUMINA_only_WGM_Qtesting_1to5GHz_P_OF_1_PLOTGROUP.mph
% Version:            COMSOL 6.1.0.282
% Date:               May 22 2025, 12:57
% Dimension:          1
% Nodes:              68
% Expressions:        252
% Description:        Line graph
% Arc length (m)          Electric field norm      Electric field norm      Electric field norm      Electric field norm      Electric field norm      Electric field norm      Electric field norm      Electric field norm      Electric field norm      Electric field norm      Electric field norm      Electric field norm      Electric field norm      Electric field norm      Electric field norm      Electric field norm      Electric field norm      Electric field norm      Electric field norm      Electric field norm      Electric field norm      Electric field norm      Electric field norm      Electric field norm      Electric field norm      Electric field norm      Electric field norm      Electric field norm      Electric field norm      Electric field norm      Electric field norm      Electric field norm      Electric field norm      Electric field norm      Electric field norm      Electric field norm      Electric field norm      Electric field norm      Electric field norm      Electric field norm      Electric field norm      Electric field norm      Electric field norm      Electric field norm      Electric field norm      Electric field norm      Electric field norm      Electric field norm      Electric field norm      Electric field norm      Electric field norm      Electric field norm      Electric field norm      Electric field norm      Electric field norm      Electric field norm      Electric field norm      Electric field norm      Electric field norm      Electric field norm      Electric field norm      Electric field norm      Electric field norm      Electric field norm      Electric field norm      Electric field norm      Electric field norm      Electric field norm      Electric field norm      Electric field norm      Electric field norm      Electric field norm      Electric field norm      Electric field norm      Electric field norm      Electric field norm      Electric field norm      Electric field norm      Electric field norm      Electric field norm      Electric field norm      Electric field norm      Electric field norm      Electric field norm      Electric field norm      Electric field norm      Electric field norm      Electric field norm      Electric field norm      Electric field norm      Electric field norm      Electric field norm      Electric field norm      Electric field norm      Electric field norm      Electric field norm      Electric field norm      Electric field norm      Electric field norm      Electric field norm      Electric field norm      Electric field norm      Electric field norm      Electric field norm      Electric field norm      Electric field norm      Electric field norm      Electric field norm      Electric field norm      Electric field norm      Electric field norm      Electric field norm      Electric field norm      Electric field norm      Electric field norm      Electric field norm      Electric field norm      Electric field norm      Electric field norm      Electric field norm      Electric field norm      Electric field norm      Electric field norm      Electric field norm      Electric field norm      Electric field norm      Electric field norm      Electric field norm      Electric field norm      Electric field norm      Electric field norm      Electric field norm      Electric field norm      Electric field norm      Electric field norm      Electric field norm      Electric field norm      Electric field norm      Electric field norm      Electric field norm      Electric field norm      Electric field norm      Electric field norm      Electric field norm      Electric field norm      Electric field norm      Electric field norm      Electric field norm      Electric field norm      Electric field norm      Electric field norm      Electric field norm      Electric field norm      Electric field norm      Electric field norm      Electric field norm      Electric field norm      Electric field norm      Electric field norm      Electric field norm      Electric field norm      Electric field norm      Electric field norm      Electric field norm      Electric field norm      Electric field norm      Electric field norm      Electric field norm      Electric field norm      Electric field norm      Electric field norm      Electric field norm      Electric field norm      Electric field norm      Electric field norm      Electric field norm      Electric field norm      Electric field norm      Electric field norm      Electric field norm      Electric field norm      Electric field norm      Electric field norm      Electric field norm      Electric field norm      Electric field norm      Electric field norm      Electric field norm      Electric field norm      Electric field norm      Electric field norm      Electric field norm      Electric field norm      Electric field norm      Electric field norm      Electric field norm      Electric field norm      Electric field norm      Electric field norm      Electric field norm      Electric field norm      Electric field norm      Electric field norm      Electric field norm      Electric field norm      Electric field norm      Electric field norm      Electric field norm      Electric field norm      Electric field norm      Electric field norm      Electric field norm      Electric field norm      Electric field norm      Electric field norm      Electric field norm      Electric field norm      Electric field norm      Electric field norm      Electric field norm      Electric field norm      Electric field norm      Electric field norm      Electric field norm      Electric field norm      Electric field norm      Electric field norm      Electric field norm      Electric field norm      Electric field norm      Electric field norm      Electric field norm      Electric field norm      Electric field norm      Electric field norm      Electric field norm      Electric field norm      Electric field norm      Electric field norm      Electric field norm      Electric field norm      Electric field norm      Electric field norm      Electric field norm      Electric field norm      Electric field norm      Electric field norm      Electric field norm      Electric field norm      Electric field norm      Electric field norm      Electric field norm
0                         225.5192817780499        34.58357891083132        94.94218991478074        56.592750977961174       120.54547437955596       248.04205624069368       58.62727750853752        193.3054770505377        122.39918283937662       62.436917266139304       35.12014560316125        230.84707578625546       15.386407393630948       12.932520032148728       103.82417652777215       68.58601692913686        156.70794830611501       240.35072967911827       15.151189582850861       18.513571188415966       66.8465564192267         58.4694143915356         49.708671870775085       61.81993071379802        72.84715402684185        148.05964554190396       77.49741905337456        63.45609969777384        297.8756423929702        36.26165701519158        43.40125493213616        23.44026653833018        254.3492831343419        223.1554085379037        14.693720410920923       15.109378478822736       14.830958342549147       16.40252875346792        17.62624354909905        42.562326874161805       39.937548258864425       32.46585275697544        29.209916760602603       22.560949645318296       101.81648427425833       263.53106283886615       56.755191269327874       47.89295483552563        122.43284945973264       144.41973189407355       7.267868856868566        14.565779381317157       9.996974535628773        9.961098229696361        54.26615624201528        309.00201577314743       202.9680869414566        91.97696507275258        230.5333656473211        220.33420172227267       24.034805755343687       193.0162695077659        78.71661398882854        66.79040974082118        152.17761026893092       358.4096222553253        62.775507871990676       84.23381969173694        45.35631648631655        28.616114457033664       246.97162643708708       106.518872767435         39.488456967961326       46.20652811779325        172.26027743164778       14.617347215603692       7.695170162140576        14.050872875785945       11.523763758111599       5.823322208456374        9.050740835154539        5.850000657324555        5.369104486374439        283.87524830113415       261.6560655685152        374.81031269191107       297.7923011174029        369.7867082156182        118.05065159976367       150.80408965223407       77.25950159864429        56.04505837776722        47.525849481456774       79.5059592172246         57.9896047410259         16.666153683725508       19.87459540878257        241.71495608457198       199.70099906987272       232.0701309339461        60.75030211889531        254.94122561214215       158.30099341958612       99.96141356772522        98.31569325971604        35.148346366427624       5.306174270653665        3.5730138418126196       3.189387730565085        2.6946828018530007       90.7113553205565         23.645643368180966       22.88319226917081        519.1151174417162        163.90264120997898       41.21046238102801        36.90859827443099        176.16036804535548       359.28423139275253       253.97734413520314       300.7332951707767        11.6194345091494         4.493174361456214        9.523254435381569        7.454786617460718        19.144041681522733       18.020133995651538       170.38982965724588       303.21910416905837       46.66872201925045        24.755774363832753       53.63070579299776        37.97126209472247        355.5357300898549        37.004080223416096       48.31396419526581        72.07485420808976        45.65923862029108        21.46728491740735        33.415317031295814       40.00413049894277        45.61286481493948        238.71079068646415       297.4781537195833        55.272731357680314       70.53351013896133        239.92302140731283       48.93673962752015        197.14200825792844       289.70938301676847       508.9712519167803        128.6088751247831        129.79514977964118       2.7338375992563577       2.0446494824007164       1.7004865666387006       1.6951710455048945       387.63823195713593       222.24030271315635       150.43716089685267       56.138887170758856       45.312643293909915       271.00311824130813       291.1597720640222        3.007020584875601        7.35493673446135         4.699085165692196        5.397579446857784        345.4190631937397        170.09447018940352       26.064048439478057       40.51723520117559        26.05039997950031        33.190223446689494       26.21154847121259        18.24138019455022        33.38779059598594        38.62947629699338        54.66515115435005        56.81990146359021        35.69081011713163        17.217613133743804       488.6466542734559        134.31224908687116       351.737120281867         496.5978834781808        45.071410547428314       35.0150007596077         41.072723426385146       36.94979834780637        42.03374001934585        46.58513395105245        74.19813078704533        301.2750734039991        270.5469205216613        422.4506852280368        299.95320740172457       1.0376225376625148       1.806478509796002        0.7577916119052044       0.720765572504342        157.70045673223032       316.88906117408015       148.66036294847032       58.95556507521071        160.74396182525493       154.53852506481715       289.93320358437694       274.9705153560035        57.35671581864064        2.013764195163224        2.3758943123419107       2.66352050628559         3.957097540828964        173.7368292596213        32.72076818101961        280.0975333845447        315.5589451835466        22.657233169855825       19.9069268447046         22.998376341175717       20.083835307777697       26.894673305686286       27.778003666546795       527.1753054314709        330.86849688623585       15.710799424111537       55.19022477500903        7.1521365185564845       180.7479381221317        445.01137531167967       445.55097860266125       373.8143510308286        19.0575009053276         314.33467371778124       239.38231331665008       64.01951396915199        64.14791067823553        380.7004259743269        0.6024618195630839       0.5199569992834998       0.3154288576496646       0.5030464308046285       306.15876589693323       167.88759121354875       284.18983542712886       282.95411954153377       216.31395496216518       70.47177409812778        67.03880038675491        179.30513415033          171.54968735745206
3.4674882840211516E-4     227.23045151780374       33.667716576148806       95.4681321202909         56.06374683186573        121.47097326446799       250.89941257558166       59.10307762743713        195.37408608148408       122.51555077560701       61.22071948773617        35.56052934630582        235.13360636694756       15.036711592781245       12.69921016951005        105.44134559256607       68.4473870134561         157.92515819988975       243.7545433766834        14.983903540721723       18.539873717684255       66.29664642015247        57.85204375668662        49.4296203095396         61.50693745302548        72.03277973909118        146.23876795561168       78.08842350101196        63.02417758243727        305.09468637395315       36.928802310806915       43.6048470909837         23.2301367089292         258.8207794795808        226.88745113028355       14.501383983858435       14.883966672150986       14.712519107568589       16.545914820562036       17.319641608015953       41.80221842325175        40.32938995969373        32.460936065187425       28.87105308401498        22.57311926082488        104.4250501300929        260.9569020444916        57.23853998517568        48.09075221334495        122.02463492189943       144.137353625155         7.363451074596578        14.31995747919645        9.933276771058054        10.101475139967354       55.42935901576242        315.5967494294811        207.50754521729976       94.331307271538          237.61858323338063       219.63305956130841       24.012909525950015       198.71527214272407       78.06662559679303        65.6556063793429         155.8862402361252        355.938075680523         63.019528687422074       85.89136093528893        46.854580436990744       29.397726563368376       247.1860003528985        105.76834026596487       38.92664067485035        45.408016629760986       171.84422676999347       14.447700236625389       7.871031527162496        14.125921635733953       11.46097497642388        5.834510388213774        8.936702299332948        5.850843809531664        5.449915200095704        291.0084335176748        268.54681959436647       374.31508821899985       299.2311605237564        370.80232238871514       117.47324497772026       155.8989806351297        78.90128147189513        55.22851811183779        46.915991633481326       79.39003865012056        57.81409611183749        17.123935872646324       21.409723296357715       242.77904190645856       199.78528384829383       240.0668991754765        62.96767397541682        254.3128057934535        158.56020665437867       100.26508669242735       99.7407546516136         35.43162501803717        5.257450428215108        3.588685504208653        3.2176438332797206       2.731872916845005        90.56302573209815        22.852170919665177       22.147100555995536       517.9081349406291        174.72281122100648       40.90457844232224        36.60304563676674        175.1786186807596        361.76190732668283       262.2468894432737        308.9594518015567        11.527136352297106       4.66067893114925         9.553024650933525        7.37915853314865         20.25220798127558        18.8010420918188         170.62095498501554       305.4417346511589        45.67183669277915        24.411217049344252       53.743052005786275       38.21308949013728        359.5435144719649        37.09278959714359        48.373216109531725       73.91632451798124        46.142942485585586       20.82244860358399        33.52635113471284        39.89188552570067        44.54843992611758        240.63364731637384       297.57621803257126       55.42041815696206        70.82850726388912        239.40051299008127       51.23635515403841        205.5855817783867        296.56685894375545       509.8159306162696        128.39343069432996       132.69082793314047       2.7063654400193102       2.0628321681269814       1.7290888506253055       1.7104564468656478       391.4794427663678        222.0300569054538        156.4953975095341        55.41010766164145        44.84758317068223        280.7288380153366        300.14661867821263       3.0829240450320015       7.325770335732668        4.665418074271215        5.393338905793218        349.5365638862745        169.5270497292668        26.32576813836209        41.36939751139344        26.219703861469537       33.2039472653957         26.80290836036818        18.309856181456077       32.341226367596924       36.97616793021235        55.18376851893057        56.987470568067          35.85382323799883        17.469372454866416       497.07153006049003       134.59328165484328       358.64198575714147       499.3224000340204        45.201639372499166       34.88936829249889        41.1348987367706         37.289299954735476       42.01217055452732        46.888127386236015       74.86741173531148        302.35214184247246       273.4699848929482        427.9468085083866        302.5765541500787        1.0607700544655607       1.7970294126011954       0.7646885425320459       0.7446114091760646       159.57112659004676       317.40939192623887       157.45047594836512       61.646991589089005       159.91506280065792       160.71659365392065       298.91537362133676       286.84972677348213       58.394337352692204       2.02359808854904         2.3513202072354606       2.653680394428373        3.954618103938399        181.3626306586753        33.939624450502194       284.0662133797381        319.0633065276171        23.110923015998992       20.246716561977035       23.07049895236186        20.28648917171869        27.378991693248643       28.565892363833232       531.1387166114748        340.18294810427807       16.02902972756522        55.04568653858995        7.4233397887092325       182.08027585671994       455.0549419643756        452.9494514645427        379.7050574832425        19.263408204616034       315.75857180452664       243.1201284001858        64.95287783420181        64.91228129445078        390.1575987686691        0.5969097912238956       0.5455586973279651       0.3216891997877757       0.5079451211955843       306.6767379457363        172.31861353158664       296.7351358169269        293.26085420295817       216.8699497811157        69.53179226164005        66.87257119059869        179.91861602267176       178.8088212348935
3.5869766057380903E-4     227.28888536065512       33.63633875312572        95.48634635730409        56.045591662595626       121.50263240402332       250.99704448520666       59.11951272172367        195.44471869286113       122.51920088048574       61.178431280222384       35.57622768937861        235.2800949926983        15.024678256944334       12.691325748305985       105.49706166598149       68.44267324593477        157.96625816890602       243.87070114026028       14.97819627093208        18.540893196065593       66.2785266135543         57.83058249351565        49.42025427495849        61.496515230434774       72.00424050671424        146.1742668817376        78.10973015406098        63.010111666451415       305.3415442899211        36.95182954753913        43.61345286074829        23.223195124505764       258.9733594834143        227.0145488143593        14.494820875094875       14.876268735941082       14.708434325408732       16.550897363540106       17.309559308918583       41.775871939842865       40.34313582508943        32.46087994473548        28.859283138664825       22.573782024529358       104.51786215896509       260.8638692531436        57.256374678310344       48.09827764796178        122.01148200285279       144.1289271257248        7.367225272536007        14.31126764943202        9.931064664929682        10.106314769832704       55.4703831479521         315.8217705317126        207.6623757958746        94.41229920434515        237.86144846468986       219.60464904362934       24.013622621112294       198.9103214964626        78.04313650348429        65.6156237980694         156.019046115961         355.845862180718         63.02805580298812        85.9499844508187         46.90654104509592        29.425077583790078       247.19582207243195       105.74036490441723       38.90725665507545        45.38059914939707        171.8305105750104        14.441685779208424       7.8773604070840815       14.12854601664027        11.458863907452487       5.8351509086992515       8.932637766896722        5.850862818001486        5.4526997322457085       291.2520842512124        268.78191496424984       374.2919667711564        299.28060061721595       370.8284865500335        117.45091736641314       156.07529955044274       78.95840915329882        55.20048095286797        46.8948825457414         79.3847642575243         57.807368539709614       17.14085129525269        21.463249502029296       242.81713360632844       199.78867156420372       240.34076742838127       63.043787652412874       254.2905932439466        158.5669345311108        100.27690630877153       99.78970125192801        35.442110301896875       5.25568780919383         3.5893933645902263       3.218605766867839        2.7331673421478317       90.5567985659541         22.826834295651995       22.123776367018486       517.851278773549         175.11154660997784       40.89424069288969        36.592522967419434       175.14020096093188       361.8375282226725        262.52952891791637       309.2403120106276        11.523757510731771       4.666868016987041        9.554060948536478        7.376630432054671        20.291166925023898       18.82867081898475        170.62567966381636       305.52168080507397       45.641261081936214       24.400322525806605       53.74607912498213        38.22122931323692        359.6708875613408        37.095952121177966       48.375662572528036       73.982426337051          46.16034233410094        20.80128924824219        33.531253954047706       39.887326287445575       44.517165867053954       240.69326379307526       297.5786568492059        55.42461583525691        70.83742284953594        239.37929861021803       51.316117017539774       205.87534621812563       296.8140216369387        509.8306105968426        128.38570326175275       132.79008654454884       2.7053933076403935       2.063526170297704        1.7300780080584135       1.7109775549883324       391.60008208110895       222.0159249981423        156.703315969703         55.388523476485695       44.83371297192284        281.062204451786         300.45299409915685       3.085873013004535        7.324616227760935        4.6643032716090795       5.393197721750297        349.68244153042394       169.50123446584522       26.33519046672636        41.40030318848386        26.226791400343437       33.20365465093543        26.823346875380306       18.312386437578205       32.307681103296574       36.92176347440653        55.201027954705495       56.99249905374001        35.858769385760375       17.478286672879566       497.34497936265007       134.59849247579942       358.88758966291874       499.4028447604146        45.20986451326538        34.88787826012008        41.137031707318705       37.300634801279216       42.01047037146095        46.89991726150212        74.89792130542168        302.3862869550919        273.5647829834259        428.1220289706778        302.6563819203321        1.0616631628332878       1.796648349812709        0.7649217501248616       0.7454421738506599       159.63071085440293       317.4214727938924        157.7552886693559        61.74109392977546        159.88412997222943       160.92842027596504       299.2213020798278        287.2572884602463        58.43003758156           2.0240659414378124       2.350502187119283        2.65333539171311         3.9544432532304774       181.62595829002967       33.98200626640422        284.20130160010797       319.18666226348995       23.127463456720545       20.25886733438888        23.072689305777406       20.294111640446065       27.397392463453034       28.594598241539742       531.2588670230457        340.51690775271175       16.041517654734502       55.04112127507501        7.433892924974563        182.11901820211872       455.38388448951883       453.18788176760927       379.89338621564076       19.270443492049303       315.8047338851651        243.2414672848823        64.98421769515569        64.93768302011591        390.4682150181772        0.5966890867397543       0.5465013384754084       0.3219025985487132       0.5081108494196263       306.68704081315013       172.46401589189617       297.1647386265475        293.61369392540746       216.88226711288436       69.51304136316236        66.87634568183056        179.937262504735         179.05888383517043