% Model:              6inch_1inch_ALUMINA_only_WGM_Qtesting_1to5GHz_P_OF_1_PLOTGROUP.mph
% Version:            COMSOL 6.1.0.282
% Date:               May 22 2025, 12:57
% Dimension:          1
% Nodes:              68
% Expressions:        252
% Description:        Line graph
% Arc length (m)          Electric field norm      Electric field norm      Electric field norm      Electric field norm      Electric field norm      Electric field norm      Electric field norm      Electric field norm      Electric field norm      Electric field norm      Electric field norm      Electric field norm      Electric field norm      Electric field norm      Electric field norm      Electric field norm      Electric field norm      Electric field norm      Electric field norm      Electric field norm      Electric field norm      Electric field norm      Electric field norm      Electric field norm      Electric field norm      Electric field norm      Electric field norm      Electric field norm      Electric field norm      Electric field norm      Electric field norm      Electric field norm      Electric field norm      Electric field norm      Electric field norm      Electric field norm      Electric field norm      Electric field norm      Electric field norm      Electric field norm      Electric field norm      Electric field norm      Electric field norm      Electric field norm      Electric field norm      Electric field norm      Electric field norm      Electric field norm      Electric field norm      Electric field norm      Electric field norm      Electric field norm      Electric field norm      Electric field norm      Electric field norm      Electric field norm      Electric field norm      Electric field norm      Electric field norm      Electric field norm      Electric field norm      Electric field norm      Electric field norm      Electric field norm      Electric field norm      Electric field norm      Electric field norm      Electric field norm      Electric field norm      Electric field norm      Electric field norm      Electric field norm      Electric field norm      Electric field norm      Electric field norm      Electric field norm      Electric field norm      Electric field norm      Electric field norm      Electric field norm      Electric field norm      Electric field norm      Electric field norm      Electric field norm      Electric field norm      Electric field norm      Electric field norm      Electric field norm      Electric field norm      Electric field norm      Electric field norm      Electric field norm      Electric field norm      Electric field norm      Electric field norm      Electric field norm      Electric field norm      Electric field norm      Electric field norm      Electric field norm      Electric field norm      Electric field norm      Electric field norm      Electric field norm      Electric field norm      Electric field norm      Electric field norm      Electric field norm      Electric field norm      Electric field norm      Electric field norm      Electric field norm      Electric field norm      Electric field norm      Electric field norm      Electric field norm      Electric field norm      Electric field norm      Electric field norm      Electric field norm      Electric field norm      Electric field norm      Electric field norm      Electric field norm      Electric field norm      Electric field norm      Electric field norm      Electric field norm      Electric field norm      Electric field norm      Electric field norm      Electric field norm      Electric field norm      Electric field norm      Electric field norm      Electric field norm      Electric field norm      Electric field norm      Electric field norm      Electric field norm      Electric field norm      Electric field norm      Electric field norm      Electric field norm      Electric field norm      Electric field norm      Electric field norm      Electric field norm      Electric field norm      Electric field norm      Electric field norm      Electric field norm      Electric field norm      Electric field norm      Electric field norm      Electric field norm      Electric field norm      Electric field norm      Electric field norm      Electric field norm      Electric field norm      Electric field norm      Electric field norm      Electric field norm      Electric field norm      Electric field norm      Electric field norm      Electric field norm      Electric field norm      Electric field norm      Electric field norm      Electric field norm      Electric field norm      Electric field norm      Electric field norm      Electric field norm      Electric field norm      Electric field norm      Electric field norm      Electric field norm      Electric field norm      Electric field norm      Electric field norm      Electric field norm      Electric field norm      Electric field norm      Electric field norm      Electric field norm      Electric field norm      Electric field norm      Electric field norm      Electric field norm      Electric field norm      Electric field norm      Electric field norm      Electric field norm      Electric field norm      Electric field norm      Electric field norm      Electric field norm      Electric field norm      Electric field norm      Electric field norm      Electric field norm      Electric field norm      Electric field norm      Electric field norm      Electric field norm      Electric field norm      Electric field norm      Electric field norm      Electric field norm      Electric field norm      Electric field norm      Electric field norm      Electric field norm      Electric field norm      Electric field norm      Electric field norm      Electric field norm      Electric field norm      Electric field norm      Electric field norm      Electric field norm      Electric field norm      Electric field norm      Electric field norm      Electric field norm      Electric field norm      Electric field norm      Electric field norm      Electric field norm      Electric field norm      Electric field norm      Electric field norm      Electric field norm      Electric field norm      Electric field norm      Electric field norm      Electric field norm      Electric field norm      Electric field norm      Electric field norm      Electric field norm      Electric field norm      Electric field norm      Electric field norm      Electric field norm      Electric field norm      Electric field norm      Electric field norm      Electric field norm
0                         66.84655641924424        61.819931091091405       72.84715403021663        148.05964552405055       77.49741921547626        63.45609969775939        297.8756423806383        36.26165692765984        254.34928287835044       223.15540857317487       14.693720409019194       15.109378477712895       14.830958342395906       16.402528753571517       39.93754824819369        32.46585275279346        29.20991676782126        22.56094965652619        101.81648436049524       263.5310631176306        56.755191311384756       47.89295484811583        122.43284931929966       144.4197317304695        7.267868856957825        14.565779381298185       9.996974535617529        9.961098229712189        54.26615624201043        309.0020157731966        202.96808694339776       91.97696505079541        230.53336563871943       220.33420172229413       24.034805755316864       193.0162695077623        78.7166139847048         66.79040974725615        152.17761024663372       358.40962227850616       62.77550785473473        84.23381969747105        45.356316477875815       28.616114457553007       246.97162643225448       106.51887276311385       39.48845697339193        46.20652810431908        172.26027743161066       14.617347215488449       7.695170162123163        14.05087287531892        11.523763758582993       5.823322208568463        9.050740835214286        5.850000657326319        5.369104486327191        283.8752482798678        261.65606567172546       374.8103127445972        297.79230099753573       369.78670821721056       118.05065157983226       150.80408967007236       77.25950161887879        56.045058392129135       47.52584948176965        79.50595919502422        57.98960473452182        16.66615368299687        19.874595408113198       241.71495606617563       199.70099907590904       232.07013094554225       60.75030208734423        254.9412255911337        158.30099340803827       99.96141356804208        98.31569326020784        35.14834636643328        5.306174270592081        3.5730138418246766       3.1893877305647824       2.694682801851406        90.71135532053862        23.645643367890962       22.883192273476478       519.115117446714         163.90264123759346       41.210462371971396       36.90859827670143        176.16036803693257       359.28423139497835       253.97734411780027       300.7332951622957        11.619434509087442       4.493174361409892        9.523254435458176        7.45478661749236         19.144041678066912       18.02013399836776        170.38982965089767       303.2191041684239        46.668722012299575       24.755774365968634       53.630705794266404       37.97126209197106        355.53573008961285       37.00408021907677        48.31396420586822        72.07485419707487        45.65923862369317        21.46728491743409        33.41531703045881        40.00413049915634        45.612864814989656       238.7107906857315        297.4781537196295        55.27273136111188        70.53351013867146        239.92302140732548       48.936739658488364       197.14200825894946       289.7093830566914        508.97125190908673       128.60887512563696       129.79514978007535       2.7338375991874715       2.044649482330092        1.70048656645396         1.6951710455369506       387.63823195930013       222.2403027109994        150.43716089705248       56.13888718125474        45.31264331068237        271.00311823772876       291.15977198743013       3.0070205847370928       7.354936734494842        4.699085165700644        5.39757944686984         345.4190631949256        170.09447009410022       26.06404844007103        40.51723520175607        26.050399979367626       33.19022344665739        26.211548473788245       18.241380193269805       33.38779058849759        38.62947629826957        54.66515115424942        56.81990146293448        35.69081011681818        17.217613134530612       488.6466542736189        134.31224908449647       351.7371201516026        496.59788346144325       45.07141055219971        35.01500076769808        41.072723427224325       36.94979835145029        42.03374001932852        46.5851339422636         74.1981307872321         301.2750734546903        270.54692057003535       422.4506852522726        299.9532073820882        1.0376225378060882       1.806478509868547        0.7577916119869941       0.7207655724736338       157.70045673657629       316.8890611643909        148.66036294384367       58.95556507861946        160.74396182294828       154.53852506579364       289.93320358796984       274.9705153600488        57.356715818799046       2.0137641951215413       2.3758943123287297       2.663520506373125        3.9570975409833684       173.7368292541106        32.72076818563748        280.09753337910996       315.5589452183264        22.657233169925043       19.906926844693697       22.99837634155922        20.083835307621985       26.894673305850716       27.77800366370043        527.175305420351         330.8684968655216        15.710799423973011       55.190224775362914       7.152136515511731        180.7479381210644        445.01137530637965       445.55097862087024       373.81435104645703       19.057500906387524       14.214651241471092       22.623098118112836       12.16313002365859        314.3346736929501        239.38231333427288       64.01951396688844        64.14791067850521        380.70042597404034       0.602461821559618        0.519956999274666        0.3154288605729146       0.5030464315749706       1.5806684558845843       1.6247776472705169       1.5241527275020277       1.5137394337296246       306.1587658958523        167.8875912131291        284.1898354372732        282.9541195327684        216.31395496102303       70.4717741034018         67.0388003769677         179.30513415185294       171.54968735553746       45.45640771516856        307.0875942988454        329.7060811906058        67.4235321863178         104.46164288758683       139.65816156208336       610.7698935306677        13.708429231925729       11.840061840804596       15.483161194447701       68.78327533123931        53.03295594929884        121.19610060465362       74.69054285923534        222.07081886630937       356.63241273289293       443.8259116876912        443.3098312721527        102.04178167870684
3.4674882840211516E-4     66.29664642016986        61.5069378144903         72.03277974271987        146.2387679382247        78.08842365555438        63.02417758242377        305.0946863612573        36.928802220805466       258.82077921784963       226.88745116638583       14.5013839820558         14.88396667109157        14.712519107402745       16.545914820667164       40.32938994852259        32.460936060908665       28.871053090924455       22.573119271417866       104.42505021159819       260.95690231668624       57.238540028347366       48.09075222633117        122.02463478098487       144.13735346156506       7.363451074679817        14.319957479178553       9.933276771049542        10.101475139986343       55.42935901575621        315.5967494295245        207.50754521929085       94.3313072487633         237.61858322452653       219.6330595613305        24.01290952592236        198.7152721427212        78.06662559263879        65.65560638578965        155.88624021494897       355.9380757032312        63.01952866891759        85.89136094125834        46.854580428192094       29.397726563892583       247.18600034807926       105.76834026166422       38.926640680062974       45.408016616744966       171.84422676995646       14.447700236513267       7.871031527144406        14.125921635244213       11.460974976919992       5.834510388319275        8.936702299390273        5.850843809535875        5.4499152000562745       291.0084334961034        268.5468196989224        374.3150882705176        299.2311604072647        370.80232239030653       117.47324495751276       155.89898065347725       78.90128149279644        55.22851812585428        46.915991633698674       79.39003862793872        57.81409610530079        17.12393587160376        21.40972329544162        242.77904188789037       199.7852838544028        240.06689918746565       62.96767394286251        254.31280577253003       158.5602066429193        100.26508669256594       99.7407546516973         35.431625018043235       5.2574504281550185       3.588685504218142        3.2176438332790815       2.731872916843918        90.56302573208119        22.852170919362965       22.14710056006733        517.9081349455544        174.72281124638874       40.90457843338817        36.6030456390051         175.17861867210243       361.76190732894827       262.2468894259005        308.9594517930462        11.52713635223589        4.660678931104246        9.553024651009741        7.379158533182527        20.252207977265357       18.801042095017664       170.62095497857368       305.44173465041223       45.67183668602597        24.41121705136638        53.74305200704493        38.213089487402996       359.54351447171734       37.0927895928299         48.3732161200722         73.91632450641158        46.14294248916121        20.822448603610447       33.52635113391673        39.8918855259156         44.548439926167234       240.63364731568288       297.5762180325968        55.42041816042408        70.8285072635982         239.40051299010037       51.23635518610563        205.58558177944533       296.56685898206416       509.8159306087249        128.3934306947558        132.6908279327928        2.7063654399533257       2.062832168053864        1.7290888504352682       1.7104564468956818       391.4794427685855        222.03005690323513       156.49539750972957       55.4101076718992         44.84758318691799        280.72883801190085       300.14661860414736       3.0829240448963824       7.325770335765311        4.665418074280828        5.393338905806084        349.53656388770884       169.52704963481003       26.325768139018155       41.36939751199412        26.219703861344076       33.2039472653573         26.802908363080462       18.309856180070014       32.34122636113599        36.97616793132881        55.18376851885275        56.987470567626076       35.8538232376897         17.469372455630257       497.0715300606377        134.59328165239822       358.64198563141963       499.32240001761835       45.20163937734052        34.88936830077624        41.13489873765187        37.28929995807317        42.0121705545104         46.88812737740964        74.86741173549879        302.3521418916274        273.4699849394923        427.9468085331759        302.576554129921         1.0607700546092915       1.7970294126776307       0.7646885426193153       0.7446114091538348       159.571126594324         317.4093919166901        157.45047594348694       61.646991592651645       159.9150627987256        160.71659365488316       298.91537362488947       286.84972677738574       58.39433735285646        2.023598088507372        2.351320207225227        2.653680394514528        3.9546181040928485       181.3626306529114        33.93962445534023        284.0662133741698        319.0633065634458        23.110923016100134       20.24671656195713        23.070498952744014       20.286489171567663       27.378991693444757       28.56589236016595        531.1387166005933        340.18294808441965       16.02902972742618        55.04568653894262        7.423339785856055        182.08027585573342       455.05494195895113       452.94945148314184       379.70505749921534       19.263408205816717       14.151658679624756       22.84197997601308        12.417362364821054       315.75857177998745       243.12012841743964       64.95287783187175        64.91228129475411        390.1575987683701        0.5969097933250678       0.5455586972121311       0.32168920272620194      0.5079451218287006       1.5718512295197697       1.6227243996721847       1.5148909788675333       1.4909014801010125       306.67673794465765       172.31861353118785       296.73513583052056       293.26085419120875       216.86994977994215       69.5317922652202         66.8725711836599         179.91861602328615       178.808821232196         43.4869077286727         310.9048390758208        336.0832000143767        70.15994810183685        110.30151599452077       168.43972209666654       614.3580048512058        14.029872488632176       12.105557692477996       15.577202948291676       65.53337954362782        51.64277619713337        125.87048274043062       76.63617680540993        225.33621497816182       365.5384225560079        452.941472051905         452.5732689157259        106.52296925028563
3.5869766057380903E-4     66.2785266135717         61.49651559132357        72.00424051035145        146.17426686436735       78.10973030833728        63.010111666437936       305.34154427721273       36.95182945745375        258.9733592214867        227.0145488504901        14.494820873295797       14.876268734883501       14.708434325242447       16.55089736364528        40.34313581390103        32.460879940453346       28.8592831455632         22.57378203510052        104.5178622403052        260.86386952510077       57.25637472152173        48.098277660962175       122.0114818619184        144.12892696213163       7.367225272619033        14.311267649414164       9.931064664921266        10.106314769851803       55.47038314794583        315.82177053175593       207.6623757978673        94.41229918154252        237.8614484558271        219.60464904365142       24.013622621084608       198.9103214964597        78.0431364993291         65.61562380451645        156.01904609482457       355.84586220340856       63.02805578443923        85.94998445679643        46.90654103628496        29.4250775843145         247.195822067613         105.74036490011699       38.90725666028063        45.38059913639654        171.8305105749734        14.441685779096414       7.877360407065972        14.12854601614975        11.458863907949448       5.835150908804512        8.932637766953954        5.850862818005781        5.452699732206548        291.2520842296307        268.7819150688511        374.29196682263034       299.28060050085          370.82848655162474       117.45091734619662       156.0752995688078        78.95840917422314        55.200480966872824       46.894882545955426       79.3847642353437         57.80736853317199        17.140851294199187       21.463249501104933       242.8171335877537        199.7886715703154        240.34076744038384       63.04378761982431        254.29059322302578       158.56693451965418       100.27690630890426       99.7897012519985         35.44211030190296        5.255687809133796        3.5893933645996228       3.218605766867189        2.733167342146762        90.55679856593719        22.82683429534931        22.123776371083228       517.8512787784715        175.1115466352832        40.8942406839594         36.59252296965682        175.14020095226687       361.83752822493926       262.5295289005447        309.24031200211624       11.523757510670585       4.6668680169420815       9.554060948612682        7.376630432088626        20.291166920994677       18.828670822200298       170.62567965737082       305.52168080432347       45.64126107518934        24.400322527825093       53.74607912624038        38.22122931050336        359.6708875610931        37.09595211686511        48.375662583066436       73.98242632546166        46.16034233768282        20.801289248268635       33.53125395325303        39.887326287660514       44.51716586710359        240.6932637923856        297.57865684923064       55.42461583871987        70.83742284924499        239.3792986102373        51.31611704964402        205.8753462191855        296.8140216751867        509.83061058930383       128.3857032621636        132.79008654417447       2.7053933075745173       2.0635261702245065       1.7300780078681919       1.7109775550182995       391.60008208332846       222.01592499592158       156.70331596989834       55.38852348673607        44.83371298814173        281.06220444835515       300.4529940251803        3.085873012869035        7.324616227793539        4.664303271618735        5.393197721763191        349.68244153186663       169.50123437140422       26.335190467384702       41.400303189085285       26.226791400218225       33.2036546508968         26.823346878097265       18.312386436188504       32.30768109687053        36.92176347551754        55.201027954628486       56.992499053306496       35.858769385451396       17.47828667364255        497.34497936279706       134.59849247335208       358.8875895373727        499.40284474402614       45.209864518109605       34.88787826840462        41.137031708201484       37.30063480460691        42.010470371444036       46.89991725267276        74.89792130560807        302.3862870041988        273.5647830299123        428.1220289954853        302.6563819001571        1.0616631629770135       1.7966483498892762       0.7649217502123182       0.7454421738287302       159.63071085867784       317.4214727843487        157.75528866446902       61.74109393334331        159.8841299703106        160.92842027692706       299.2213020833796        287.25728846414563       58.43003758172446        2.0240659413961435       2.350502187109147        2.6533353917992177       3.9544432533849343       181.62595828425705       33.982006271249816       284.2013015945348        319.1866622993565        23.127463456822834       20.258867334368652       23.072689306159397       20.29411164029526        27.397392463650196       28.594598237844128       531.2588670121742        340.5169077328864        16.04151765459548        55.04112127542765        7.433892922128334        182.11901820113496       455.3838844840903        453.1878817862212        379.89338623162496       19.27044349325497        14.149645021209528       22.849110964584384       12.42635987542532        315.8047338606345        243.24146730212513       64.98421769282332        64.93768302042038        390.4682150178778        0.5966890888443963       0.5465013383550323       0.3219026014875724       0.5081108500480545       1.5715360028485954       1.6226268539270037       1.51456550281953         1.4901108696419034       306.6870408120716        172.4640158914981        297.16473864026193       293.61369391355294       216.88226711170978       69.51304136669474        66.87634567497406        179.9372625053172        179.0588838324463        43.41982714849605        311.0375407943491        336.3025645635617        70.25870483480803        110.51766574904623       169.4529126852334        614.4488384514169        14.041536090382722       12.114995890515106       15.580149917764254       65.42246432177137        51.59560374057933        126.03334133679475       76.70723293177731        225.43935759296028       365.83074025246515       453.23779455614897       452.87340479859796       106.67800224080639