% Model:              6inch_1inch_ALUMINA_only_WGM_Qtesting_1to5GHz_P_OF_1_PLOTGROUP.mph
% Version:            COMSOL 6.1.0.282
% Date:               May 22 2025, 13:01
% Dimension:          1
% Nodes:              68
% Expressions:        252
% Description:        Line graph
% Arc length (m)          Electric field norm      Electric field norm      Electric field norm      Electric field norm      Electric field norm      Electric field norm      Electric field norm      Electric field norm      Electric field norm      Electric field norm      Electric field norm      Electric field norm      Electric field norm      Electric field norm      Electric field norm      Electric field norm      Electric field norm      Electric field norm      Electric field norm      Electric field norm      Electric field norm      Electric field norm      Electric field norm      Electric field norm      Electric field norm      Electric field norm      Electric field norm      Electric field norm      Electric field norm      Electric field norm      Electric field norm      Electric field norm      Electric field norm      Electric field norm      Electric field norm      Electric field norm      Electric field norm      Electric field norm      Electric field norm      Electric field norm      Electric field norm      Electric field norm      Electric field norm      Electric field norm      Electric field norm      Electric field norm      Electric field norm      Electric field norm      Electric field norm      Electric field norm      Electric field norm      Electric field norm      Electric field norm      Electric field norm      Electric field norm      Electric field norm      Electric field norm      Electric field norm      Electric field norm      Electric field norm      Electric field norm      Electric field norm      Electric field norm      Electric field norm      Electric field norm      Electric field norm      Electric field norm      Electric field norm      Electric field norm      Electric field norm      Electric field norm      Electric field norm      Electric field norm      Electric field norm      Electric field norm      Electric field norm      Electric field norm      Electric field norm      Electric field norm      Electric field norm      Electric field norm      Electric field norm      Electric field norm      Electric field norm      Electric field norm      Electric field norm      Electric field norm      Electric field norm      Electric field norm      Electric field norm      Electric field norm      Electric field norm      Electric field norm      Electric field norm      Electric field norm      Electric field norm      Electric field norm      Electric field norm      Electric field norm      Electric field norm      Electric field norm      Electric field norm      Electric field norm      Electric field norm      Electric field norm      Electric field norm      Electric field norm      Electric field norm      Electric field norm      Electric field norm      Electric field norm      Electric field norm      Electric field norm      Electric field norm      Electric field norm      Electric field norm      Electric field norm      Electric field norm      Electric field norm      Electric field norm      Electric field norm      Electric field norm      Electric field norm      Electric field norm      Electric field norm      Electric field norm      Electric field norm      Electric field norm      Electric field norm      Electric field norm      Electric field norm      Electric field norm      Electric field norm      Electric field norm      Electric field norm      Electric field norm      Electric field norm      Electric field norm      Electric field norm      Electric field norm      Electric field norm      Electric field norm      Electric field norm      Electric field norm      Electric field norm      Electric field norm      Electric field norm      Electric field norm      Electric field norm      Electric field norm      Electric field norm      Electric field norm      Electric field norm      Electric field norm      Electric field norm      Electric field norm      Electric field norm      Electric field norm      Electric field norm      Electric field norm      Electric field norm      Electric field norm      Electric field norm      Electric field norm      Electric field norm      Electric field norm      Electric field norm      Electric field norm      Electric field norm      Electric field norm      Electric field norm      Electric field norm      Electric field norm      Electric field norm      Electric field norm      Electric field norm      Electric field norm      Electric field norm      Electric field norm      Electric field norm      Electric field norm      Electric field norm      Electric field norm      Electric field norm      Electric field norm      Electric field norm      Electric field norm      Electric field norm      Electric field norm      Electric field norm      Electric field norm      Electric field norm      Electric field norm      Electric field norm      Electric field norm      Electric field norm      Electric field norm      Electric field norm      Electric field norm      Electric field norm      Electric field norm      Electric field norm      Electric field norm      Electric field norm      Electric field norm      Electric field norm      Electric field norm      Electric field norm      Electric field norm      Electric field norm      Electric field norm      Electric field norm      Electric field norm      Electric field norm      Electric field norm      Electric field norm      Electric field norm      Electric field norm      Electric field norm      Electric field norm      Electric field norm      Electric field norm      Electric field norm      Electric field norm      Electric field norm      Electric field norm      Electric field norm      Electric field norm      Electric field norm      Electric field norm      Electric field norm      Electric field norm      Electric field norm      Electric field norm      Electric field norm      Electric field norm      Electric field norm      Electric field norm      Electric field norm      Electric field norm      Electric field norm      Electric field norm      Electric field norm      Electric field norm      Electric field norm      Electric field norm      Electric field norm      Electric field norm      Electric field norm      Electric field norm      Electric field norm      Electric field norm
0                         242.48745557089399       191.60081425787376       305.5065743974632        285.84264805664947       367.3907217944314        175.16841739894232       413.9727153827615        535.9078416685984        180.06688664734753       282.6438227866782        230.82389612444706       195.43748600863682       479.02666134968024       334.7100031375528        299.7823482676136        196.4452587175096        278.28622399449256       192.9234550231289        339.3813596767473        147.6448311159536        191.0349456360195        320.1564068951189        198.28874375412278       269.50948532043344       238.29771864253638       258.76739008275564       293.3534833112827        55.16843587317151        132.67213872089485       141.54579834233994       376.7853544011771        198.48532234395623       261.6776600248904        546.0269519302097        226.39357157167018       93.24274625161749        265.341237586833         295.12051243572756       183.9792834848733        214.00417200156372       453.14404756940695       326.7070688996853        212.47335807383294       248.89774562525574       0.8573756576851341       0.6076988814814749       0.6892641111113331       0.6497102249412392       56.22821252497372        56.11545191220448        524.6597600106139        418.2974490273477        180.78807418255386       429.52839285150156       209.6360226668858        142.7892970402761        135.8367878895042        205.17728786364648       376.4005632374658        199.89786853571738       328.8171022379638        342.1771213762829        160.61377378675363       339.8234430404043        402.0660203693315        313.7784028518242        358.8155893979102        308.362854724657         352.67265457344746       387.20811158747057       187.08745557739604       68.7834695458903         121.77576198677164       1.291182519839818        2.0537507835116076       1.6576218838666057       0.8963375603413911       25.958413094105712       17.65299341128087        191.4315697585451        190.02920581449933       219.4822988471105        193.44711178905445       186.581659089162         125.4267332336119        1.9730883114420272       3.1581332191552436       201.17818393969063       471.5126969396071        1.7078280923038058       304.5228815589965        1.76656612464074         169.26059284025686       435.84059665199703       173.74727692171663       239.1575096669404        394.2484968440291        10.787553592447289       10.328775765860431       9.623640295150267        27.13716000255295        240.1817477632485        404.14625858180386       352.5064626577682        289.60548465161116       82.04628397809688        44.1752232286142         57.353463222955206       312.6103811000279        484.74924949784753       471.4710009629621        329.19018293803947       333.5997971159606        231.50827109240862       23.69413009795221        27.843913730894904       0.678033948056241        1.4860846401960202       163.285460098276         153.56560311710103       0.8897064335868837       2.367649635810559        555.4411074139496        294.5702147239272        39.81108707354233        209.97221155202126       241.3663584913317        390.6874880142062        401.66476857945025       224.67235641219057       159.7506599123076        83.93354502582463        97.61442075142736        206.07032693168725       519.5443857835198        153.93238572666326       204.49792190886836       376.37783569241907       24.22655408513177        21.951906266381464       390.0854553153375        337.0044756833587        4.454842589985386        2.791400080384373        2.1807649486800202       2.836470221243148        335.20899575528716       334.0679683668139        323.5126301310966        202.78718158878294       370.30139501300357       200.7594029142425        126.70339594071345       3.248418785833979        2.308067468895144        1.5641397329274245       1.4270149309202949       157.69939288781754       135.83002531481196       46.00607349134797        43.71696990911677        200.7912553139674        524.2794335797512        201.16044256046322       304.7405076859688        198.7597897943892        414.8236133194483        424.7055780995337        69.94234882370763        83.73318399457781        63.40211012808831        19.356049307597328       252.90264184920957       316.90462678074437       143.64489143789876       183.34769454374012       318.94665971852606       110.35861771382913       3.881213920223412        1.7234086759939966       421.75253677447085       235.52778830872742       288.57462332214516       714.2565756977838        3.5379763873792442       1.712210126276619        413.93892146673875       457.7080252409601        424.27444561092426       139.7869760436385        410.6534554130538        318.51103306204396       6.273518716132168        9.065533183605861        301.6486942426905        259.09696648054177       15.778533968344538       10.662573920204213       161.5088097403876        170.70979123298252       2.68166250790656         1.7166952222813945       195.68396257181638       3.724180721143756        1.885097236902226        200.47388620457102       226.9001960858542        77.68803145607552        423.23478686039755       253.42604675921626       51.31672578560642        563.9125823825265        155.6386386787505        363.7314747621957        419.2321662225425        291.7908479728269        82.57551497234441        206.39664413258905       176.55961226290069       473.63083648003544       159.18660539653848       167.5461803876084        272.8958010279388        228.87282820807943       104.19713810562529       457.1941996467259        351.6152112707945        319.86660956417546       248.6636685393407        416.64656341956766       368.7171658253556        360.88732033406063       411.2568816628659        421.97584538806893       706.1022289354761        216.30955612147008       116.41894796930627       371.24250364013506       423.0967357716399        175.01277922994024       120.40684700112237       171.71652554473454       184.75815587520847       491.9302691185032        386.6644214054875        508.35325370305054       80.07473761836464        368.68744704595724       154.43567408954925       130.3192693479506        158.97960854434473       112.37159177938825
3.4674882840211516E-4     230.151524827158         187.82518519326638       312.4181394500467        290.1734830754025        348.4049690762162        181.5963838528556        432.1259149782793        553.0693049568499        187.3005376107622        295.02242278112504       227.6683049006951        197.91445381181117       494.81971811751816       342.5589207909999        312.4395467045519        194.30870207521204       270.2676826371952        188.07804324031446       337.94895762087447       154.88096051523607       193.26709481405175       335.73823887724          209.6759400003442        274.082794219083         243.2929147297103        271.0594896609985        290.911403963629         55.272635259028284       132.03337210037333       141.23619843216653       367.9784075156142        194.07917557903343       286.77032303509          556.9944163606242        223.20195822430713       92.220777984694          262.5957683877798        288.5184909956355        188.52977124065336       218.48801244550776       438.18534798765165       346.64693648305473       221.65546603667633       258.642606293207         0.8856038145925682       0.6404260724834245       0.7276405900179846       0.6813323007819679       58.99465293585368        58.16884827296393        542.6294260589851        439.85344305079735       191.69199940048222       409.71606149130344       217.8370865339156        148.90561172465132       140.47737210670894       210.40425953171922       384.4697866877343        204.95038237258262       325.7926151232255        339.02796214481793       165.47152849602227       353.1336054171859        414.5634452877112        314.22739429637426       351.17868448286055       324.8482995080188        360.3880279153345        389.5062084961584        183.997188117904         68.68050113340826        122.57092302602766       1.288031772912707        2.0737710862521648       1.686467300236018        0.8873604746231789       25.535704580861744       18.057547385861362       190.75363926536713       204.53378460025507       230.59221316163166       204.09637119032948       183.03947344221763       126.04048942682417       2.0012298377331827       3.2602665242498587       199.41978307489327       463.096552878662         1.7469946163954442       308.643563423552         1.8041924112035972       176.7895375005086        450.72116218114667       174.058104128484         239.2388972575025        412.01402093375395       11.219576134696105       10.367850727094956       9.979100649400115        27.276159859567652       247.56007070263766       397.07573215013457       346.32344086098027       303.7529717763637        86.35648150449693        44.23665134545655        56.59615714383703        312.8505489447111        504.18612947020944       493.4927800328861        329.19017208034705       354.11315017740674       245.67694057149365       23.987363745002035       28.342491285236758       0.687825084724402        1.512475311832507        166.08699536789626       158.37831561407754       0.9172953171130067       2.4026545855296044       537.4291540137297        302.26040919163506       40.2094468543124         210.32701242294476       241.5474993723548        391.37478332133867       397.07061014690254       229.08619140010285       166.88072220125457       84.84722162617247        98.60823360996723        206.29405746742054       540.3459094112758        156.21970213394437       212.949742792218         384.3723882755113        22.322358122700727       21.237948428751903       392.1496413588524        338.678248538853         4.400739675276029        2.8012032144030994       2.15356428876133         2.882208481084399        345.9552258727829        351.1244941833276        327.54438485086007       205.4961125602022        372.7507232425844        208.78867258065998       133.3786839684088        3.34447059324286         2.4342019635541585       1.624322244302797        1.489164269806723        165.54352708694353       142.7265986114209        48.261260154198126       44.78085060876053        202.060957557536         517.2402990184421        197.1053562271469        301.46041362368726       216.1505657026141        433.3279060743585        435.6272162219854        89.29586819575859        85.06197464157938        64.32775730568717        19.30656063361846        254.5971926228151        319.5301779486091        153.93116738549597       194.51446557845293       320.71251525980244       120.77258144164716       3.9612243393523734       1.7976254768898003       415.77156477150953       232.134342783395         308.5056924678337        699.3336323753036        3.685685262399318        1.6388806288331785       437.97041306378395       479.2793231522205        427.42099981529844       147.89032370519885       408.4395201845902        324.13959008974695       6.523608741335939        9.350553384728704        321.51474437780126       276.4122694025672        15.992599688091858       10.914637765870228       156.22580481749966       182.1299793856327        2.7464095508617277       1.7143241319624938       200.7046326980933        3.7984445102863975       1.9050587027881793       205.73895554396708       239.9910357476049        82.77768206398402        428.8721751346792        256.747857506622         50.72770967523337        588.1759914080268        163.98944066227853       382.72093522578825       432.02381024722877       302.04555382669076       91.90377391554945        212.74203247268395       184.37277426707          480.7606283444512        161.46792769988085       173.9200337781283        279.44795353131053       236.79053154927695       107.32057950801266       453.6821737466975        355.09406968145584       319.62534901014334       248.90787993416248       416.6435034608661        364.8426564275701        379.07822826828874       412.9898733588811        423.5704444596424        691.8812105986505        224.37246248478968       120.90229788420726       396.8847816258637        438.86111622700145       183.0438526577275        127.06469004451841       170.13231641030785       202.1936016882987        512.0392694460699        413.96017773522306       502.9254779805941        81.0663954863509         364.72409633801465       161.93635041716945       143.31748661674808       170.21526173834675       120.86735312656474
3.5869766057380903E-4     229.717255069103         187.69740990015833       312.6454726432909        290.3140335443619        347.7245444866334        181.8224652523555        432.7366921312142        553.6273246007855        187.5408549245701        295.4342883074169        227.54545343088637       197.99057965021782       495.359199421657         342.81051094873885       312.8607579268249        194.22395714746582       269.9770923682197        187.90531708995817       337.8884305819106        155.12131038421956       193.34181684790107       336.2568074845196        210.07237588787743       274.2265164422167        243.45273576195632       271.46779744333725       290.81010744924674       55.276702928973826       132.01133921229717       141.2228635153381        367.6550845974882        193.91608947110768       287.69159398931066       557.3262897036029        223.07765472494182       92.18002006943986        262.4905329507182        288.2679838661886        188.67408937800235       218.62750626061168       437.6359666619795        347.33454469265916       221.97924767876475       258.97505724393636       0.8865774848972359       0.6416119944397304       0.7289269100333008       0.6825050349392413       59.09627584854003        58.24361197347384        543.2145243577039        440.5808245479308        192.0721433460674        408.9984656802259        218.11523668647084       149.11044955385185       140.6269506670873        210.56680860818273       384.7348587154663        205.11281744795443       325.66251519010126       338.8927010286094        165.624044919647         353.5818879300815        414.9911322004445        314.22115397184683       350.89395464685157       325.4005268374576        360.63151236821847       389.5701293125679        183.8780022239642        68.67609521099475        122.59472127372948       1.2879278173021356       2.074543993763823        1.6874581469348953       0.8870274160554267       25.52358103850296        18.081674664324446       190.72333082065668       205.0385486333726        230.96268226917647       204.4518245508308        182.91252575842202       126.06619146338112       2.0021345131316224       3.263710461355706        199.34598977262402       462.7765217924139        1.748330320229714        308.7659013995752        1.8055792897553884       177.03868123996656       451.21743813353555       174.05859017433752       239.22626599120838       412.6350289047378        11.235040835300298       10.371060460435999       9.991995304238824        27.280194940145726       247.81679047464337       396.80360638102763       346.08759083341346       304.2227276018388        86.50003689526686        44.23651594935233        56.56847139948227        312.83787125850256       504.82873031595807       494.22572371393983       329.16618691301267       354.82141893214134       246.16443443725277       23.99645346597132        28.35924158185419        0.6883031958879813       1.5134059138067106       166.18413455347536       158.54392634819732       0.9182552794383834       2.4037590752922213       536.7624078629873        302.53096601925523       40.22200983593262        210.32311695439873       241.53516273372372       391.3700109767933        396.8847227257349        229.22104856481226       167.1192287040858        84.87633001410735        98.63963802307696        206.2853080239566        541.0514672020903        156.2965852729104        213.22249476743096       384.63414347843315       22.25811734014799        21.21439687493711        392.1863838229178        338.70655890652915       4.39875506980935         2.801375310044868        2.152461345942696        2.883618065911775        346.3036552535806        351.6955112269684        327.66789169758533       205.57719795138635       372.80109770298395       209.04505928386996       133.59770910592684       3.347947763788528        2.438516642654931        1.6265719826557037       1.4913214673699857       165.79577449674187       142.94896609989667       48.35106358391202        44.81727465372995        202.088865187034         516.9595763423588        196.95870754257618       301.3361782202817        216.75530406326683       433.962480166638         435.9861401510831        89.96123439655491        85.10529012936843        64.35853868747976        19.313673810561173       254.6388959134743        319.59624943797496       154.28015249353422       194.89064498642043       320.755748532299         121.13727259088749       3.9641798035132876       1.8005411332273469       415.53365704020797       231.99965520824318       309.2018356126306        698.7534557705214        3.690570795361274        1.636456236759823        438.78771856522695       479.9861681906978        427.4937722644071        148.1603735850116        408.33313015103107       324.3092824733064        6.533274052072472        9.361570827598253        322.1974520032409        277.0130259643949        15.999567377717508       10.923273125820996       156.04463538700796       182.51601435099772       2.749113794684725        1.7146531083641952       200.8647675741894        3.80086369361314         1.9056573710868387       205.907028226593         240.4276893247798        82.95028704452606        429.027911131908         256.8418304967026        50.70138096542677        588.9948077574109        164.26729694562061       383.35575044539644       432.442301807773         302.3814019058612        92.22938806753629        212.94788135726898       184.6338476759176        480.9611455306924        161.53178435286173       174.13069830505253       279.658765225335         237.04479663438676       107.4225594483452        453.5243927514222        355.18344563763065       319.59036403208165       248.90240691902565       416.61818868410194       364.6897274103764        379.70937748294807       413.0113144028545        423.59009034322037       691.3190337103767        224.63294046293527       121.04772993824875       397.8073550594661        439.35865153232663       183.30049398306602       127.28251403947883       170.0737974050346        202.80187966900982       512.6884002948428        414.898776484967         502.69401929732265       81.09418814226453        364.55483863532703       162.19044829153643       143.76825659987665       170.60224164325206       121.16178499048634