% Model:              6inch_1inch_ALUMINA_only_WGM_Qtesting_1to5GHz_P_OF_1_PLOTGROUP.mph
% Version:            COMSOL 6.1.0.282
% Date:               May 22 2025, 13:13
% Dimension:          1
% Nodes:              68
% Expressions:        9
% Description:        Line graph
% Arc length (m)          Electric field norm      Electric field norm      Electric field norm      Electric field norm      Electric field norm      Electric field norm      Electric field norm      Electric field norm      Electric field norm
0                         154.53852506654562       45.312643310030595       134.31224908337134       253.97734410773876       289.70938300840396       283.8752482818031        22.88319227197683        309.00201578077196       374.81031271513774
3.4674882840211516E-4     160.7165936557883        44.84758318628627        134.59328165115136       262.2468894158586        296.5668589357413        291.0084334980662        22.14710055865618        315.5967494372792        374.31508824171294
3.5869766057380903E-4     160.92842027783738       44.83371298751064        134.59849247210093       262.52952889050357       296.81402162893784       291.2520842315944        22.12377636967479        315.8217705395166        374.2919667938503
6.58789248533383E-4       166.22423103580064       44.53279385035219        134.6313965195444        269.576993430132         303.24873403706187       297.3241928146571        21.583783510925482       321.4243716482754        373.58084180181595
0.0013821733026783082     178.79023620098636       44.18399603803935        133.93438267653121       286.1610050372198        320.44434873604206       311.58876226665564       20.654929026506288       334.5443267702371        370.8633659368435
0.0015065107667896482     180.92046948287995       44.17756155123007        133.70391008830063       288.95377302990875       323.62348930442715       313.9875651566926        20.54939652781517        336.74456457617464       370.2585179148503
0.0025517851732630003     198.46691501972708       44.729906836097996       130.48500898503028       311.759123483127         352.68402193194356       333.53867192210413       20.28142100892555        354.60520613528655       363.6988953667853
0.002645815986779744      200.01280501008276       44.83127809071247        130.08357070763148       313.7515508413304        355.490462947344         335.2435690412015        20.30948456227152        356.1561728961881        362.9883025423867
0.002952139351820267      205.01064129775372       45.21821410372568        128.64859793487423       320.17444934723403       364.83954522653573       340.7359374404725        20.456397583276928       361.1449471536407        360.5486784961862
0.0030130215335792965     205.99695903565214       45.30528425342351        128.3402745778417        321.4386385464647        366.7346996821646        341.81631424620946       20.495396334485335       362.12484384794334       360.04193851552196
0.0033024638556163888     210.6539851978594        45.76417170368783        126.77011609797242       327.3926117512477        375.9086517788767        346.9016112501378        20.723045155052723       366.73067075526257       357.5397146939091
0.003302471594740541      226.351056815071         47.70752856524248        124.68006176150529       348.67578362027825       378.71486255585893       351.9154799222414        23.029797842854233       366.70583471970883       357.8707647616008
0.0033025969121067943     226.3535723455018        47.70781622832753        124.67949680871432       348.67949710853605       378.71907787373146       351.9177771109437        23.029997370561308       366.7079351935749        357.86997917436537
0.003359396840699122      227.49198240446864       47.83963148424624        124.41884642470386       350.3603391181309        380.63359002206266       352.9570376975693        23.12209157354199        367.65844174914093       357.51218220493183
0.0036682415452802004     233.62068258303586       48.60504607279736        122.84150916586708       359.4197363469996        391.18253498386576       358.54005936984163       23.67802951987663        372.77330304649587       355.51082533249684
0.0038260042077461216     236.71121431035854       49.026512462022055       121.93155597621993       363.99524405012687       396.6636127079945        361.34752410967496       23.995439140145404       375.35123527281803       354.45653430872875
0.004595933498874077      251.40206816680615       51.350963013139115       116.4835760649499        385.81889113746          424.3645257124461        374.61388127960964       25.812872502588224       387.5948643477915        349.1138944635883
0.004752088750935383      254.3018783764039        51.87174173744251        115.17575529241076       390.1426289828476        430.1865563517363        377.2158845100554        26.22658452620365        390.0098398122588        348.0125186309479
0.005194888167514959      258.19119036119895       52.404929997142325       110.27663230181604       398.77969649906674       455.6787987492564        384.52740817433903       27.603543561798034       395.8355899470496        345.35434002611385
0.00582293255210413       270.36169244907467       54.48554660367956        103.77341163732997       411.70071927030443       487.8018467538974        394.29076716819037       29.627643634860632       402.30900565790546       338.89280141100426
0.006385772027551067      280.7872671327905        56.48727348521765        97.10134746314752        422.6933704425683        517.9776050643168        402.6386619649329        31.492977407943435       407.7801325225682        333.4764857744737
0.006773128716621089      285.69963382375965       57.4531006307613         93.89772643890448        429.95071036973764       534.1304509542329        407.3562181714205        32.341793701165656       411.68090482089633       334.3519559411561
0.007304591575109576      292.38165150523514       58.49912670388198        87.95656595509044        438.25106019255594       541.6882972446894        413.4935621728558        33.483277871745656       416.35259804432405       324.9636707615168
0.0073797674796735446     293.2959854020018        58.652589993712155       87.08995749670754        439.3844732471029        542.7794019665703        414.33670307094343       33.643808363125835       416.99773380453325       323.6736369394071
0.007942702020450172      299.89203126035176       59.82743096888243        80.40501953888844        447.55009925911344       551.1436892129931        420.45183367785813       34.82478645957308        421.70506607991325       314.38510420207626
0.00888175832368282       309.8763514547781        61.80725764844612        68.57270278586805        459.90321630330635       565.9647720731608        429.8662892963261        36.65379511448985        429.07190255564814       300.7786299694417
0.009056357157124686      311.58791605883937       62.1677493131634         66.29696553594385        462.0244928420082        568.8557808984989        431.50745453272737       36.96738722796365        430.37461880224356       298.5770393862393
0.009379321896051486      314.6315966475585        62.82201948040655        62.04414571093349        465.80284655566044       574.3262334656374        434.45244731559995       37.52160299896329        432.72892597032217       294.8275472076093
0.009502211504749499      311.55313313509475       63.34013740329706        61.700377551712585       467.50498616244533       576.6527967826954        439.5890965821091        37.19485306257015        435.1365943131279        294.4035757481579
0.009946468688734533      314.1298425751266        63.98137737662707        55.81631170963551        470.6020484527115        579.3427097230086        441.3827565471433        37.82236238993316        436.67599671202385       288.0921694190254
0.011743083332222905      321.31354582263197       66.08153241243407        34.749266572093944       479.1138980115164        594.6709593090726        446.28374152192475       39.390358556210124       441.2461808903281        274.4763749309641
0.0118109522088639        321.4819753018842        66.14162827399723        34.14973709931558        479.30896925951345       595.3909783462578        446.39492479208263       39.417853460215824       441.36668688237626       274.3838155710937
0.012264445936843445      339.84682293512526       68.1035800568            33.06348825338619        472.9267526492311        605.0454104793059        446.9873424990716        39.753495815681255       440.55859012971865       277.202336086228
0.012417605310561517      339.8680816785679        68.08193648429504        32.27527622155358        472.87139259692697       607.5480568768203        447.1409910150805        39.72500128767053        440.67336696157975       277.73546560455367
0.012759203844596426      339.790866979            68.00490139426415        31.10887299336023        472.59681882950406       613.3611335678313        447.38041417923216       39.61880022293248        440.86043164867294       279.4276180752661
0.013589902496337548      341.49874626773675       67.80544170606117        26.05442577691042        471.81413682274774       613.7405253705101        446.5148645881787        39.08610207213776        439.5761385350581        279.31486346172414
0.014105559716453268      337.7086805067744        67.82042928393979        36.09484604385203        471.212136178579         618.9056130966554        446.1914169522739        39.04223582294952        438.7219335347044        289.3502837191151
0.014153884318349325      337.3661109768998        67.7538250668112         36.7045934145152         470.91318803675705       617.7328627952055        446.0080574339318        39.008259570350184       438.5460672091946        289.2474400198599
0.014979509520301285      330.8936918357204        66.49232690401017        47.89768258392332        465.12105364775505       598.2739460081426        442.4439101690928        38.26888258396395        435.33206690379996       289.94694239965696
0.015045417372405055      330.32690307876453       66.38223682487778        48.823294477423794       464.60299418310336       596.7666555153721        442.12432606181295       38.19727678730928        435.0584525895882        290.1945495668879
0.015056813937137396      330.22815003265526       66.36307034425957        48.983501740887704       464.51257931967575       596.5066966055825        442.0685400749288        38.18471207810065        435.0108844993464        290.2401085293867
0.015679979503720957      324.49574667086296       65.26095483108774        57.74231427124723        459.1950031689236        582.590784540719         438.7832283126722        37.41801359098382        432.2951181474495        293.91123647172117
0.016080798206248043      320.46720232138426       64.50322159061885        63.295114612363285       455.3879115571948        573.942156002308         436.4272274315877        36.84643833897178        430.4292547990832        297.4138712267775
0.01676556437056637       312.9791799221055        63.14555465591784        72.48321711486018        448.18701751867053       559.6892471900677        431.96570652829996       35.743390956490664       427.02590141317074       305.20372488613094
0.016772783252534285      312.896234941135         63.130943189960455       72.57765936629724        448.1064429019286        559.5423945861028        431.91575721823233       35.73099263553828        426.98857368749054       305.2968367880448
0.01725439929098864       307.17739000363986       62.14924382332206        78.74995928369067        442.5123170393293        549.8997241022317        428.44696149176065       34.87239485804705        424.4299212272241        311.96951639479977
0.01728321386646177       306.82378825564064       62.09029769722395        79.1109082193926         442.1640144467471        549.3323247542086        428.23093946701727       34.81921481827854        424.2725738925469        312.3959628547646
0.018336510889307572      293.0410647603648        59.97641364896264        91.60670277688234        428.3875601225931        529.2909605970352        419.68508526100186       32.77748186838037        418.1903701407188        329.74816507296595
0.018488752567931175      282.24298394419236       59.17793604739945        92.45712369695583        424.36913218397393       499.7519283920227        410.408556536476         30.62958291396969        415.6898032472526        318.6477277161196
0.01854636144964056       281.81749225989023       59.02752936023853        92.97133764619102        423.8070520040729        498.17833787655997       409.82257553537806       30.523460374414093       415.15337685441574       319.4638169979565
0.018945941592533103      278.76932712982176       58.00203211473474        96.55333961274174        419.8059198924875        487.42820498206          405.64886126743494       29.77389864530286        411.3540636215483        325.2905264393881
0.020166513145029197      268.42626908573084       55.1179286073173         107.40268564979135       406.480193988329         456.3733330284244        391.7172486389467        27.375641236064777       398.8975394579677        344.36866349080805
0.020605419234597834      264.3358230259423        54.20059130069501        111.17972574739392       401.2848337537964        445.8675620858922        386.27245376290927       26.49473843947339        394.1048345863834        351.4926594207054
0.020663028116307235      259.0397287977106        53.37049765219777        113.33106326576363       385.34091788232934       445.39585086699947       398.0538227365262        26.87992285090698        400.1332838936928        363.3513835965386
0.02091163162188664       255.85203620606282       52.8946368005611         116.02365483581741       385.645693004079         430.2532211837496        395.6483860912353        27.008797464977594       395.97571506067794       358.26006845289413
0.021063867144437365      252.73372825664075       52.34559230755629        117.62452358134699       382.26978194922737       422.63856142674007       393.07468250320267       26.512687570447746       394.0660168602816        360.05081405135905
0.021304334013542012      247.75816642960436       51.507763533302395       120.02553952424842       376.8666310647283        410.8342843479257        388.9591633784395        25.752280206689726       391.0079869541811        362.8498815164946
0.022300772260515758      226.52923383401287       47.46924205357685        127.31356389591572       349.16711766827865       380.67511577546736       355.34075621713293       23.036428858700805       368.8347272804451        364.0976099634099
0.022328057349341634      225.90749467930303       47.400141043096234       127.48237185888337       348.3544039537008        379.6217417743916        354.7585883445974        22.97280777249443        368.34530619289876       364.29345428842316
0.022494236682151596      222.11137907550304       46.99569746090992        128.4647052156432        343.38825175400115       373.26919284998877       351.19640114644955       22.605096716478933       365.34879518775136       365.461220193264
0.023366327261182658      201.92994032957222       45.36715907633922        132.32662355045815       316.8673707663619        341.815362009225         332.039399691835         21.310553455356654       349.18124642781686       370.77803415207023
0.023850386130257875      190.54675484171315       44.8516001055304         133.53009880493244       301.8151870973051        325.8645011840225        321.0726115576384        21.123866667172813       339.88677445584          373.0449896477489
0.023987887167332404      187.29075829458282       44.75907998674088        133.74940290568472       297.4964997654847        321.5523434720575        317.91428395329365       21.146814093354035       337.20486456764604       373.58950244893975
0.02404137758713301       186.02149849706552       44.72968311096352        133.82006543067848       295.811325014242         319.90244590457695       316.6805017606045        21.165019023694352       336.15656360754514       373.7889700826443
0.02451334997351633       174.76068174300718       44.633211912592934       134.08799745430304       280.81808533939943       306.0539487307623        305.6700880771498        21.551986699490516       326.78577930578723       375.2391706388828
0.02469225653478715       170.46440246659472       44.67424326891294        134.02270741745008       275.07663689528573       301.15873748233076       301.4384491830092        21.8041974023743         323.1768125389132        375.6390316556122
0.024962433499910508      163.9492474594339        44.81808037532225        133.75045835519782       266.3459117856752        294.16665605928887       294.98797317604726       22.292113020809722       317.6674592150246        376.08152150768257
0.0254                    153.33387862916464       45.26077172739558        132.867074990415         252.0531235512943        283.9500431688352        284.38898684312454       23.34299206826257        308.5935396122897        376.37597511135306
