% Model:              6inch_1inch_ALUMINA_only_WGM_Qtesting_1to5GHz_P_OF_1_PLOTGROUP.mph
% Version:            COMSOL 6.1.0.282
% Date:               May 22 2025, 13:11
% Dimension:          1
% Nodes:              68
% Expressions:        9
% Description:        Line graph
% Arc length (m)          Electric field norm      Electric field norm      Electric field norm      Electric field norm      Electric field norm      Electric field norm      Electric field norm      Electric field norm      Electric field norm
0                         45.312643319956365       253.97734412179722       289.70938299984044       283.8752482637008        10.533832370207838       22.88319227107179        309.0020157710758        17.421559810214962       19.67637013180429
3.4674882840211516E-4     44.84758319594738        262.246889429893         296.5668589275261        291.00843347970505       10.291646962663902       22.147100557812333       315.59674942735217       17.153918941437468       17.923136759509088
3.5869766057380903E-4     44.833712997163595       262.52952890453685       296.81402162073573       291.2520842132246        10.28387217083775        22.12377636883283        315.82177052958195       17.14485970576416        17.866469826034123
6.58789248533383E-4       44.532793859822995       269.5769934441293        303.24873402921025       297.3241927960732        10.101613549849588       21.583783510125865       321.42437163815697       16.921018728280956       16.54074383626438
0.0013821733026783082     44.18399604725176        286.1610050510754        320.4443487291845        311.5887622475917        9.77115992328215         20.654929025767256       334.54432675973544       16.411872908639115       14.342423838435124
0.0015065107667896482     44.17756156042441        288.9537730437321        323.62348929775834       313.98756513755126       9.73072170629006         20.549396527080518       336.7445645656156        16.32890744166007        14.142999058934029
0.0025517851732630003     44.72990684544691        311.75912349658626       352.6840219270068        333.5386719023703        9.591790716485974        20.281421008160724       354.60520612434607       15.688393518386427       14.890590833848771
0.002645815986779744      44.83127810010163        313.75155085474876       355.49046294257266       335.2435690214196        9.597221878606032        20.309484561498582       356.15617288522213       15.636012514212439       15.158132010192716
0.002952139351820267      45.21821411327488        320.17444936051          364.8395452223108        340.73593742053936       9.635452005065186        20.45639758247226        361.1449471426021        15.471690285352615       16.215000572306135
0.0030130215335792965     45.305284263009696       321.4386385597105        366.73469967804937       341.8163142262472        9.646772259290033        20.495396333673447       362.1248438368921        15.44020141597065        16.45559162164814
0.0033024638556163888     45.76417171347267        327.3926117643431        375.9086517752871        346.9016112300423        9.717261092185693        20.723045154202826       366.73067074416          15.295925362347107       17.71768361373405
0.003302471594740541      47.707528573915084       348.67578362893744       378.71486255231355       351.9154799058889        13.108115327160322       23.029797841767255       366.7058347070857        18.333751177748468       38.42966903434613
0.0033025969121067943     47.70781623700018        348.6794971171952        378.7190778701863        351.91777709459114       13.107998689783118       23.02999736947429        366.70793518095127       18.33369025117354        38.42864312928084
0.003359396840699122      47.83963149294007        350.36033912677095       380.6335900186332        352.957037681226         13.056081721104293       23.122091572439523       367.65844173625294       18.306464791657714       37.96624090192799
0.0036682415452802004     48.605046081631635       359.4197363555436        391.18253498107117       358.5400593535464        12.807746277355466       23.678029518686692       372.77330303216536       18.172155970196208       35.549808786731106
0.0038260042077461216     49.02651247094402        363.99524405862707       396.6636127055279        361.3475240934029        12.703748564130922       23.995439138908957       375.3512352577471        18.112608104034077       34.386789989429545
0.004595933498874077      51.350963022630786       385.8188911457973        424.36452571159543       374.613881263435         12.430944901690715       25.812872501116278       387.5948643290729        17.912014539830295       29.61037550892386
0.004752088750935383      51.87174174707612        390.14262899116216       430.18655635121394       377.21588449389697       12.424611883903307       26.22658452468351        390.00983979279334       17.889844013141445       28.866203952500406
0.005194888167514959      52.40493000686806        398.7796965073888        455.6787987494367        384.5274081581621        10.9918740900202         27.603543559894224       395.8355899273929        15.704048293064393       13.12303799663888
0.00582293255210413       54.48554661383226        411.70071927658574       487.8018467551607        394.29076715307065       10.235821690719682       29.627643632748278       402.30900564009914       16.75749513601113        13.112912658878345
0.006385772027551067      56.48727349581103        422.6933704470678        517.9776050664823        402.6386619507341        9.677201004382317        31.49297740564715        407.7801325064359        17.806628029964102       15.768587307558917
0.006773128716621089      57.45310064176569        429.9507103740849        534.130450957173         407.35621815736465       8.762048107892909        32.34179369875597        411.6809048039576        18.362909073235855       30.385236457420525
0.007304591575109576      58.49912671569775        438.2510601963813        541.6882972481146        413.4935621590783        8.584844745466274        33.48327786921052        416.3525980274598        17.917887602524015       29.50898639337865
0.0073797674796735446     58.65259000564           439.3844732508621        542.7794019700632        414.3367030572006        8.572063779469605        33.643808360573146       416.9977337876786        17.865615771693957       29.448646262933924
0.007942702020450172      59.827430981623536       447.55009926243673       551.1436892169797        420.4518336643366        8.575307347179736        34.82478645689113        421.70506606312455       17.562164849756275       29.513317811906703
0.00888175832368282       61.80725766242402        459.9032163061385        565.9647720779178        429.8662892830235        8.96071981798177         36.653795111603756       429.07190253893674       17.414948153567256       31.574815220985297
0.009056357157124686      62.16774932735275        462.02449284478166       568.8557809033905        431.5074545194444        9.081303160079203        36.96738722504152        430.3746187855412        17.438046106610592       32.200430354133324
0.009379321896051486      62.82201949497081        465.80284655835214       574.3262334707697        434.4524473023358        9.340973112946305        37.52160299597628        432.7289259536323        17.522303075693458       33.5304880687318
0.009502211504749499      63.34013741834106        467.50498616382373       576.6527967879724        439.58909656919406       7.254123585119913        37.19485305952463        435.13659430034494       17.89197957227448        23.058937164627693
0.009946468688734533      63.98137739208627        470.6020484539314        579.3427097285138        441.38275653433567       7.4354483826668805       37.82236238685477        436.6759966987968        17.524597271852134       23.93916245229174
0.011743083332222905      66.08153242896208        479.11389801246844       594.6709593152507        446.2837415092519        8.625645894606041        39.39035855311847        441.2461808752216        16.31863398291023        29.22891899005367
0.0118109522088639        66.14162829054649        479.3089692604668        595.3909783524533        446.39492477940547       8.682519861373878        39.41785345712738        441.3666868671966        16.282723968614356       29.47092647971671
0.012264445936843445      68.1035800729574         472.926752648508         605.0454104856482        446.98734248654614       10.769673439509853       39.753495812678196       440.55859011969875       15.438781702200137       28.46587548782051
0.012417605310561517      68.0819365004816         472.87139259619823       607.5480568831897        447.1409910025311        11.015141337199962       39.72500128467372        440.67336695171014       15.463683605646274       29.271746263501257
0.012759203844596426      68.00490141049166        472.5968188287815        613.3611335742462        447.38041416661736       11.57755377540366        39.61880021995402        440.8604316391231        15.561522087588765       31.19459252117212
0.013589902496337548      67.8054417221644         471.81413682162537       613.7405253768574        446.5148645758134        11.050006921431288       39.086102069026424       439.576138525861         9.88333590381636         32.63472096554235
0.014105559716453268      67.82042929989038        471.21213617716614       618.9056131030346        446.1914169401501        12.563688733340962       39.04223581984396        438.72193352616534       11.566353809319157       41.37775567682379
0.014153884318349325      67.75382508273164        470.91318803535125       617.7328628015587        446.00805742180916       12.607469940604958       39.008259567247734       438.54606720070944       11.543933221584192       40.91973659560622
0.014979509520301285      66.49232691933487        465.12105364664586       598.2739460140019        442.4439101568871        13.44753780708639        38.26888258093077        435.3320668961276        11.728370466769226       33.56851560348054
0.015045417372405055      66.38223684014845        464.60299418203203       596.7666555211881        442.12432604959184       13.521565103677839       38.197276784282934       435.05845258197184       11.788458311456074       33.030060878383395
0.015056813937137396      66.3630703595208         464.5125793186112        596.506696611391         442.0685400627049        13.534462617662768       38.184712075075495       435.0108844917394        11.799497582371654       32.9378475504662
0.015679979503720957      65.26095484578997        459.19500316832597       582.5907845460898        438.7832283002375        14.280740432573749       37.41801358803258        432.2951181403026        12.67557964014481        28.374582313096106
0.016080798206248043      64.50322160491793        455.38791155699795       573.9421560073724        436.4272274189572        14.799712508715581       36.846438336076424       430.42925479216973       13.488471101149383       26.07689596489562
0.01676556437056637       63.145554669452494       448.187017519341         559.6892471945667        431.96570651522705       15.746976875259525       35.74339095370472        427.0259014065432        15.225526511918941       23.78222590432299
0.016772783252534285      63.13094320348655        448.10644290260933       559.5423945905956        431.915757205154         15.757331912236838       35.73099263275356        426.9885736808653        15.245769152810096       23.77089934329657
0.01725439929098864       62.14924383625598        442.51231704076076       549.899724106297         428.44696147828927       16.463796688761523       34.872394855348745       424.4299212207148        16.669559663427513       23.67659657301728
0.01728321386646177       62.09029771012111        442.16401444822725       549.3323247582473        428.23093945352036       16.50699442309755        34.81921481558562        424.2725738860423        16.758902952856452       23.712420417468273
0.018336510889307572      59.97641366042615        428.3875601261358        529.2909606000601        419.68508524640987       18.148756124024942       32.777481865897236       418.19037013422246       20.2681546814166         27.868279728480122
0.018488752567931175      59.17793605983647        424.3691321904906        499.75192839433544       410.4085565203774        21.129391625636966       30.629582911821604       415.6898032314775        27.14688329764495        36.94345678651632
0.01854636144964056       59.02752937260014        423.8070520106022        498.1783378788011        409.8225755193086        20.97773113488819        30.52346037226732        415.1533768385876        26.96017839993128        37.15843641307023
0.018945941592533103      58.0020321265728         419.8059198991128        487.4282049837955        405.64886125156596       19.964036469744194       29.77389864316511        411.3540636053304        25.752976651484218       38.93906533498975
0.020166513145029197      55.11792861757427        406.48019399534087       456.37333302853085       391.71724862366875       17.378237476168405       27.375641233946574       398.8975394403112        23.2049966998451         46.913233812328215
0.020605419234597834      54.20059131040338        401.28483376098075       445.86756208538856       386.2724537478363        16.685624020799498       26.494738437356105       394.1048345681179        22.78737588999057        50.46512642831412
0.020663028116307235      53.37049766121666        385.3409178916586        445.3958508666154        398.05382271882604       19.07046578008455        26.879922849028898       400.13328389041516       17.074512448519286       32.39932097470061
0.02091163162188664       52.89463680922012        385.64569301104575       430.25322118239393       395.648386075025         18.392204575075294       27.00879746313806        395.97571505747936       16.37949469053306        17.95803273095976
0.021063867144437365      52.34559231614218        382.26978195662934       422.6385614250887        393.07468248681306       18.297356315387834       26.512687568662802       394.06601685682745       16.663961990971046       17.914077441472408
0.021304334013542012      51.507763541783476       376.8666310728248        410.8342843457988        388.9591633617639        18.163304671692003       25.752280204991493       391.0079869503208        17.159251752725567       17.871277913739235
0.022300772260515758      47.46924206171976        349.16711767951455       380.67511577165715       355.34075620000465       11.943276147845426       23.036428857299544       368.83472726816177       13.486335366039278       32.127123208486566
0.022328057349341634      47.40014105123389        348.3544039649639        379.6217417705238        354.75858832745945       11.891377523654512       22.972807771105032       368.3453061806615        13.55356250413742        31.971261584338922
0.022494236682151596      46.99569746902174        343.38825176542883       373.2691928457714        351.1964011292533        11.596817288842717       22.60509671516088        365.3487951757953        13.972379923717803       31.034847677113916
0.023366327261182658      45.36715908449374        316.8673707786467        341.8153620032386        332.0393996743569        10.747220569641852       21.310553454372897       349.18124641734533       16.388932439994434       26.562323987297265
0.023850386130257875      44.85160011384082        301.81518711006277       325.86450117713184       321.07261154002265       10.84096203421219        21.123866666327736       339.886774446199         17.85083244964884        24.50073379559528
0.023987887167332404      44.759079995112764       297.4964997783767        321.55234346492466       317.9142839356413        10.942421589863178       21.146814092539998       337.2048645582417        18.278008557624396       23.985262940366106
0.02404137758713301       44.72968311936135        295.811325027186         319.90244589735175       316.6805017429382        10.990534481011434       21.165019022891293       336.1565635982331        18.445451362702737       23.794053598376014
0.02451334997351633       44.63321192126783        280.8180853528046        306.0539487227798        305.67008805936916       11.612415408064235       21.551986698755847       326.7857792972908        19.95034219961072        22.35609219563466
0.02469225653478715       44.674243277714844       275.0766369088661        301.15873747409137       301.4384491651891        11.933335067275024       21.80419740165163        323.1768125307271        20.532268577912323       21.93922207255655
0.024962433499910508      44.81808038433785        266.34591179952116       294.1666560506987        294.9879731581721        12.495488368102539       22.2921130200904         317.66745920730807       21.421362767870235       21.457270016479306
0.0254                    45.26077173680973        252.0531235655737        283.9500431597852        284.38898682517186       13.57584778942655        23.3429920675119         308.59353960533633       22.88421330102123        21.07920793706545
