% Model:              6inch_1inch_ALUMINA_only_WGM_Qtesting_1to5GHz_P_OF_1_PLOTGROUP.mph
% Version:            COMSOL 6.1.0.282
% Date:               May 22 2025, 12:33
% Dimension:          1
% Nodes:              68
% Expressions:        252
% Description:        Line graph
% Arc length (m)          Electric field norm      Electric field norm      Electric field norm      Electric field norm      Electric field norm      Electric field norm      Electric field norm      Electric field norm      Electric field norm      Electric field norm      Electric field norm      Electric field norm      Electric field norm      Electric field norm      Electric field norm      Electric field norm      Electric field norm      Electric field norm      Electric field norm      Electric field norm      Electric field norm      Electric field norm      Electric field norm      Electric field norm      Electric field norm      Electric field norm      Electric field norm      Electric field norm      Electric field norm      Electric field norm      Electric field norm      Electric field norm      Electric field norm      Electric field norm      Electric field norm      Electric field norm      Electric field norm      Electric field norm      Electric field norm      Electric field norm      Electric field norm      Electric field norm      Electric field norm      Electric field norm      Electric field norm      Electric field norm      Electric field norm      Electric field norm      Electric field norm      Electric field norm      Electric field norm      Electric field norm      Electric field norm      Electric field norm      Electric field norm      Electric field norm      Electric field norm      Electric field norm      Electric field norm      Electric field norm      Electric field norm      Electric field norm      Electric field norm      Electric field norm      Electric field norm      Electric field norm      Electric field norm      Electric field norm      Electric field norm      Electric field norm      Electric field norm      Electric field norm      Electric field norm      Electric field norm      Electric field norm      Electric field norm      Electric field norm      Electric field norm      Electric field norm      Electric field norm      Electric field norm      Electric field norm      Electric field norm      Electric field norm      Electric field norm      Electric field norm      Electric field norm      Electric field norm      Electric field norm      Electric field norm      Electric field norm      Electric field norm      Electric field norm      Electric field norm      Electric field norm      Electric field norm      Electric field norm      Electric field norm      Electric field norm      Electric field norm      Electric field norm      Electric field norm      Electric field norm      Electric field norm      Electric field norm      Electric field norm      Electric field norm      Electric field norm      Electric field norm      Electric field norm      Electric field norm      Electric field norm      Electric field norm      Electric field norm      Electric field norm      Electric field norm      Electric field norm      Electric field norm      Electric field norm      Electric field norm      Electric field norm      Electric field norm      Electric field norm      Electric field norm      Electric field norm      Electric field norm      Electric field norm      Electric field norm      Electric field norm      Electric field norm      Electric field norm      Electric field norm      Electric field norm      Electric field norm      Electric field norm      Electric field norm      Electric field norm      Electric field norm      Electric field norm      Electric field norm      Electric field norm      Electric field norm      Electric field norm      Electric field norm      Electric field norm      Electric field norm      Electric field norm      Electric field norm      Electric field norm      Electric field norm      Electric field norm      Electric field norm      Electric field norm      Electric field norm      Electric field norm      Electric field norm      Electric field norm      Electric field norm      Electric field norm      Electric field norm      Electric field norm      Electric field norm      Electric field norm      Electric field norm      Electric field norm      Electric field norm      Electric field norm      Electric field norm      Electric field norm      Electric field norm      Electric field norm      Electric field norm      Electric field norm      Electric field norm      Electric field norm      Electric field norm      Electric field norm      Electric field norm      Electric field norm      Electric field norm      Electric field norm      Electric field norm      Electric field norm      Electric field norm      Electric field norm      Electric field norm      Electric field norm      Electric field norm      Electric field norm      Electric field norm      Electric field norm      Electric field norm      Electric field norm      Electric field norm      Electric field norm      Electric field norm      Electric field norm      Electric field norm      Electric field norm      Electric field norm      Electric field norm      Electric field norm      Electric field norm      Electric field norm      Electric field norm      Electric field norm      Electric field norm      Electric field norm      Electric field norm      Electric field norm      Electric field norm      Electric field norm      Electric field norm      Electric field norm      Electric field norm      Electric field norm      Electric field norm      Electric field norm      Electric field norm      Electric field norm      Electric field norm      Electric field norm      Electric field norm      Electric field norm      Electric field norm      Electric field norm      Electric field norm      Electric field norm      Electric field norm      Electric field norm      Electric field norm      Electric field norm      Electric field norm      Electric field norm      Electric field norm      Electric field norm      Electric field norm      Electric field norm      Electric field norm      Electric field norm      Electric field norm      Electric field norm      Electric field norm      Electric field norm      Electric field norm      Electric field norm      Electric field norm      Electric field norm      Electric field norm      Electric field norm      Electric field norm      Electric field norm
0                         374.8103130453009        297.7923005003523        369.7867081281066        118.05065162733956       150.8040898458639        77.25950169410973        241.71495596484203       199.70099926113585       232.0701310902712        60.75030203679997        254.94122547025034       158.3009934949553        99.96141356399164        98.31569326520774        35.1483463664387         5.306174270659182        3.5730138416936503       3.189387730552887        2.6946828017673665       519.1151173107781        163.9026412043138        176.16036803720286       359.2842313969078        253.97734406589984       300.73329516353067       19.144041680153173       18.020133994569445       170.38982961314053       303.2191042756894        46.6687220108171         24.75577436453259        53.63070580367607        37.97126208564234        355.53573008952816       37.004080205896344       48.31396416849235        72.07485418765059        45.659238641107045       21.467284917627442       33.41531703288059        40.004130498706665       238.71079069759764       297.478153719769         55.27273136174307        70.53351014052951        239.92302140715623       48.93673965517448        197.14200826111187       289.7093830866302        508.9712519028466        128.6088751256841        129.79514978050597       2.733837599242708        2.044649482436626        1.70048656640194         1.695171045554202        387.6382319588899        222.24030271881227       150.43716089649          56.13888718092935        45.312643319072386       271.0031182333997        291.15977198713847       3.0070205847187004       7.354936734450738        4.699085165858721        5.397579446881576        345.4190632207435        170.0944700861013        26.06404844019487        40.51723520240999        26.050399979402645       33.19022344663779        26.211548473813725       18.241380194036996       33.387790586603714       38.629476299750635       54.66515115333204        56.81990146222207        35.69081011665501        17.217613136685234       488.6466542735856        134.31224908273134       351.7371201614116        496.5978834684168        45.07141053078873        35.015000765757854       41.07272342723986        36.94979834495378        42.03374001933054        46.585133946936914       74.19813078192499        301.27507345653396       270.5469205381709        422.45068524938165       299.95320738269095       1.0376225378129007       1.8064785098945892       0.7577916120000779       0.7207655724659472       157.7004567301272        316.88906116391524       148.66036294266974       58.95556508439033        160.74396182336335       154.5385250651965        289.93320358797763       274.97051536011406       57.35671581881906        2.0137641951428416       2.3758943123279743       2.66352050641199         3.9570975409972142       173.7368292565711        32.72076818151853        280.09753337113625       315.5589452044787        22.65723317040376        19.90692684525294        22.998376341713445       20.083835307720726       26.894673306169828       27.778003663731926       527.1753054212115        330.86849685966496       15.710799423996242       55.19022477529071        7.152136521459963        180.7479381195936        445.0113753072943        445.5509786234837        373.8143510429939        19.05750090648119        14.214651241450884       22.623098118202044       12.163130023816288       314.33467370471436       239.38231333746975       64.01951397029525        64.14791067655986        380.70042597377534       0.6024618215662223       0.5199569992518248       0.3154288605760157       0.5030464315765354       1.5807427127276823       1.6247593416959414       1.5242036108779518       1.5137449461737187       306.15876589714384       167.88759121668164       284.1898354366431        282.9541195331234        216.31395496106956       70.47177410354311        67.03880038009444        22.313628379498642       84.33697027429353        179.30513415184507       171.54968735568968       45.456407714366904       307.08759431260285       329.7060811835789        67.42353218475918        104.46164288620265       26.39919729264823        17.73302499608467        139.65816155543394       610.7698935306521        13.70832979573016        11.840408072645912       15.483173387421619       13.622615151099314       68.78327532722966        53.03295594771384        21.557958651931845       21.860717938600864       121.19610060312465       74.6905428524835         21.438149299361275       43.07764462334836        222.07081884073588       356.632412779428         443.82591186240927       443.309831325972         102.04178167883136       72.12457250658134        55.40855954230397        9.48017664610907         13.009590046194958       11.497683100698115       6.854498287795517        193.2208160600408        338.2403752965465        62.43866057518379        40.792261583832826       0.6033816158082718       0.407258013897457        0.39853495499430136      0.23804362506925672      0.4445470956658994       0.5471768765179994       1.1405493037022527       0.7458260434379672       461.956661962273         168.29030838905086       284.9679398797459        281.7380468696972        50.71362226702519        23.552890042223062       214.37491336481725       301.364513211984         427.2763621602924        463.4115070394648        35.706583628825165       431.273870089212         187.5281011965582        60.81783741092064        46.364470215282466       245.73839077879015       224.48525231730014       186.29713039058953       183.18589342057294       52.19982746125486        95.98904062770414        8.45127293728584         8.388402810246209        9.391273683133868        6.817182325952366        112.34257593517479       298.78795761210046       227.35765676694945       95.03527171319736        73.6568930361347         400.6789138912444        521.8367865689689        90.12145534284942        90.72742834681785        58.412171867116136       71.89712206545596        75.60150353274764        114.22701204891827       188.61037099668735       348.2720158781318        84.75532319730651        14.330797142473585       305.73129207732          260.2280822990991        413.0194572463431        182.09996542519156       484.4464158824789        389.00906841037386
3.4674882840211516E-4     374.31508856459527       299.23115992396816       370.80232230066764       117.47324500570518       155.89898083656016       78.9012815721568         242.77904178582313       199.78528404207967       240.06689933697834       62.967673890788106       254.3128056521346        158.5602067292652        100.26508668990505       99.7407546545081         35.43162501804863        5.257450428218433        3.588685504086025        3.217643833262853        2.7318729167564633       517.9081348120299        174.72281121577242       175.17861867228922       361.7619073309468        262.2468893740801        308.9594517942893        20.252207979662494       18.801042090537504       170.62095493984404       305.4417347600182        45.67183668456317        24.41121704991899        53.74305201643141        38.21308948116902        359.54351447163043       37.09278957971974        48.373216082912265       73.9163244966177         46.142942507468526       20.82244860380208        33.526351136279494       39.89188552546116        240.63364732696124       297.57621803275515       55.4204181610632         70.82850726546351        239.40051298992785       51.236355182709296       205.58558178171162       296.5668590107775        509.81593060260764       128.39343069477286       132.6908279335184        2.7063654400109343       2.0628321681595327       1.7290888503842126       1.7104564469127443       391.4794427681542        222.03005691126398       156.4953975091699        55.41010767155605        44.847583195073504       280.7288380077283        300.146618603867         3.0829240448813082       7.3257703357247195       4.665418074442353        5.393338905820874        349.5365639128802        169.5270496260155        26.325768139150775       41.36939751265803        26.219703861383067       33.20394726535593        26.80290836310535        18.30985618089591        32.34122635949524        36.97616793263782        55.18376851815581        56.987470567094725       35.853823237527195       17.46937245773137        497.07153006060577       134.59328165056647       358.6419856408858        499.3224000244444        45.20163935559768        34.88936829878764        41.1348987376573         37.289299951997016       42.01217055451321        46.888127382105615       74.86741173006256        302.3521418934131        273.4699849088757        427.9468085302215        302.5765541305461        1.0607700546158052       1.7970294126984776       0.7646885426325839       0.7446114091445051       159.5711265880039        317.4093919162228        157.45047594224562       61.646991598883915       159.91506279908933       160.71659365436147       298.9153736248962        286.84972677745304       58.39433735287782        2.0235980885300817       2.351320207223863        2.6536803945527527       3.954618104107318        181.3626306554759        33.939624451009394       284.0662133659759        319.06330654918105       23.110923016616916       20.246716562536687       23.070498952899396       20.286489171661824       27.378991693847443       28.565892360203435       531.1387166014384        340.1829480788047        16.029029727449338       55.04568653887029        7.423339791459471        182.0802758541659        455.0549419598832        452.9494514858132        379.7050574956737        19.263408205915464       14.151658679604276       22.84197997610489        12.417362364976599       315.75857179161943       243.1201284205601        64.95287783564234        64.9122812927067         390.1575987681015        0.5969097933293211       0.545558697188909        0.32168920273002544      0.5079451218310151       1.571928416217495        1.6227061094017237       1.5149416920672978       1.4909067816100448       306.6767379459424        172.31861353464654       296.7351358296812        293.26085419169453       216.86994977998717       69.5317922653187         66.87257118566097        22.860648186393835       85.93408402655845        179.91861602335467       178.80882123232095       43.48690772799199        310.9048390900468        336.0832000071661        70.159948100062          110.30151599296171       27.52996672788688        18.101714407628595       168.43972209111763       614.3580048511948        14.029771605009747       12.105928950294839       15.577226546248212       13.798146213819054       65.533379540067          51.6427761957293         22.15603928464119        22.44487356401833        125.87048273879601       76.63617679815913        21.84066400259887        43.15965425649161        225.33621495131112       365.538422604495         452.941472230082         452.5732689706309        106.52296925041604       69.52819290823068        53.77267309134509        9.39055152709533         13.242851179361628       11.655602437726213       7.022176894819567        197.14370972931107       340.64395313877753       60.46823522970778        39.56608003979301        0.6057987192199467       0.409617076510201        0.3920362692922312       0.24176105059743203      0.4380053119339583       0.5423007711146682       1.1271836262165291       0.731796553584309        476.131723076031         171.91306693469497       297.49146724871105       294.0751227034661        51.84909065549603        24.206570604858136       220.82591571125687       302.2082511958678        436.37667801850023       472.0190645468083        36.667173659851194       440.7409940767326        189.1568561712523        62.51786937413671        47.45232693104038        247.76327594323058       226.97133810040657       189.38428072408843       190.06974449477838       51.58204819725401        92.28225863284312        8.554315918456615        8.499040243370272        9.481261767395123        6.974618951449433        107.90421429602873       305.56696737419          231.79935880746518       92.5360191457215         72.04316875788064        411.34656115242194       534.265516298783         86.52507779766864        87.12162140627605        56.15791947671356        74.42955127823122        77.37008955240545        108.81565947210088       193.28722790796817       351.4608273054416        89.58446798346527        12.99600301306793        322.0066164018698        270.4569907645656        427.1303913099927        187.30679508141944       493.01262958562353       401.84819608481234
3.5869766057380903E-4     374.29196711645886       299.28060001807086       370.8284864619697        117.45091739441146       156.07529975214155       78.95840925372602        242.81713348565793       199.78867175808395       240.34076759006012       63.04378756769772        254.2905931026454        158.56693460598285       100.2769063062914        99.78970125473558        35.44211030190834        5.2556878091970844       3.5893933644674814       3.2186057668508097       2.733167342059189        517.8512786450402        175.11154660475862       175.1402009524508        361.83752822694015       262.5295288487282        309.2403120033596        20.29116692340252        18.82867081769654        170.62567961860512       305.5216809140131        45.64126107372707        24.40032252637733        53.746079135625706       38.22122930427296        359.670887561006         37.095952103757206       48.375662545913485       73.98242631565483        46.1603423560224         20.8012892484602         33.531253955612975       39.88732628720602        240.69326380364475       297.57865684938963       55.42461583935927        70.83742285111052        239.37929861006472       51.31611704624497        205.8753462214554        296.8140217038541        509.83061058319134       128.38570326217953       132.79008654491008       2.7053933076322183       2.0635261703301286       1.7300780078171696       1.7109775550353532       391.6000820828964        222.0159250039577        156.70331596933875       55.388523486392145       44.833712996290004       281.0622044441882        300.4529940249004        3.085873012854079        7.324616227753072        4.6643032717803745       5.393197721778086        349.6824415570183        169.50123436258193       26.33519046751765        41.40030318974959        26.22679140025735        33.20365465089611        26.82334687812214        18.312386437016414       32.30768109523837        36.92176347682067        55.20102795393907        56.99249905278137        35.858769385288916       17.478286675741657       497.34497936276534       134.59849247151806       358.88758954682567       499.40284475084627       45.20986449635334        34.88787826641422        41.13703170820661        37.30063479854459        42.01047037144688        46.89991725737039        74.89792130016662        302.3862870059826        273.564782999335         428.1220289925289        302.65638190078295       1.0616631629835207       1.7966483499099435       0.7649217502255926       0.7454421738193431       159.6307108523621        317.42147278388154       157.75528866322531       61.741093939591536       159.88412997067246       160.92842027640793       299.2213020833864        287.257288464213         58.43003758174586        2.0240659414188986       2.3505021871077627       2.65333539183742         3.9544432533994254       181.62595828682512       33.98200626691171        284.2013015863328        319.18666228507675       23.127463457340962       20.258867334948977       23.072689306314775       20.294111640389218       27.397392464055784       28.59459823788183        531.2588670130185        340.5169077272809        16.041517654618627       55.041121275355295       7.433892927719265        182.11901819956415       455.38388448502286       453.18788178889446       379.8933862280807        19.270443493353884       14.149645021189043       22.84911096467629        12.426359875580781       315.80473387226255       243.24146730524322       64.98421769660648        64.93768301836943        390.468215017609         0.5966890888485697       0.5465013383318028       0.3219026014914209       0.5081108500503944       1.5716132830186926       1.6226085664746686       1.5146161969416867       1.490116162568281        306.687040813356         172.46401589495375       297.16473863941525       293.61369391404327       216.88226711175471       69.513041366792          66.87634567694371        22.87915858337681        85.98880143702512        179.93726250538842       179.05888383257033       43.41982714781965        311.0375408085921        336.30256455634435       70.25870483302481        110.51766574748055       27.57378747330531        18.11570462642139        169.45291267971672       614.4488384514061        14.04143515844418        12.115368094738516       15.580173995224703       13.804907203007934       65.42246431822602        51.59560373918146        22.176862655926413       22.46532319099217        126.03334133515658       76.70723292450974        21.85512743628865        43.163477195277615       225.4393575660664        365.83074030101744       453.23779473443744       452.87340485353786       106.678002240937         69.43875004759899        53.717074186358744       9.387507689585608        13.25068421101736        11.660837641017425       7.02826503935254         197.2690713185964        340.7231172526474        60.40069281201199        39.52416620736543        0.6058698628768863       0.409724054990769        0.391817371121166        0.24190248062167896      0.437800398141939        0.5421625292920755       1.1267148328271983       0.7313209934828527       476.59968724413596       172.030046322825         297.92190426829023       294.4968730222933        51.88720162323251        24.228824354914664       221.03901009591348       302.2277229715312        436.68765037327574       472.3096282439997        36.69903020488577        441.0725847418791        189.20005049303413       62.57601717042096        47.48953037464348        247.8221881009595        227.0476308303082        189.48957377222789       190.30802107677187       51.56145524864977        92.15427699228955        8.55778761270355         8.503589063695769        9.484643420090775        6.980175318453133        107.74995878375607       305.788256585652         231.94193725939982       92.45081701696728        71.98823460084023        411.6959931917131        534.670508963046         86.411051424855          87.00873468343815        56.08927878288647        74.51973314178557        77.43440143640795        108.65115832772872       193.43766447402135       351.56527048745795       89.7566866313603         12.95332286450181        322.56713623524774       270.80501165109456       427.59683169800894       187.47622021828127       493.28988398204126       402.3037225009194