% Model:              6inch_1inch_ALUMINA_only_WGM_testing_LN_with_fieldnormplot.mph
% Version:            COMSOL 6.1.0.282
% Date:               May 20 2025, 17:59
% Table:              Table 1 - 
% Eigenfrequency (GHz)                            Frequency (GHz)                                   Quality factor (1)
6.038439742662855+0.0182180138446573i             6.038439742662855                                 165.7271696616291
6.039160212991244+0.018087866541064885i           6.039160212991244                                 166.93953925634452
6.044343646002356+0.05748821497075996i            6.044343646002356                                 52.5702846146525
6.044678870185344+0.012495198092228722i           6.044678870185344                                 241.88007367185236
6.047505634196734+0.012696951582567345i           6.047505634196734                                 238.14793633220737
6.057966221962713+0.03129924476392418i            6.057966221962713                                 96.77495843198723
6.0592105686638735+0.031093209668476597i          6.0592105686638735                                97.43623500546674
6.05982793862502+0.02767455071244209i             6.05982793862502                                  109.48376364969505
6.061411938341075+0.02722272034071837i            6.061411938341075                                 111.33001886800272
6.078960285750937+0.003377314527577361i           6.078960285750937                                 899.9695225471849
6.0799135282885235+0.0034796846485190503i         6.0799135282885235                                873.6299611052581
6.083403184094082+0.0037772016276396065i          6.083403184094082                                 805.279117161616
6.084102029024525+0.004784150090826742i           6.084102029024525                                 635.8602796231609
6.084492327847778+0.003230730534166732i           6.084492327847778                                 941.6589009050684
6.086159794751969+0.004824205673832451i           6.086159794751969                                 630.7939800084225
6.087844734201588+0.0033375235098800967i          6.087844734201588                                 912.0302398139959
6.094417523093547+0.003921663353227641i           6.094417523093547                                 777.0194652324845
6.095120185776172+0.05789432820943955i            6.095120185776172                                 52.64004587570614
6.096578378609042+0.05560105204466445i            6.096578378609042                                 54.82430776410172
6.096688173350462+0.0034385807343351236i          6.096688173350462                                 886.5122916081981
6.100022188841742+0.0034859311610580283i          6.100022188841742                                 874.9487449703827
6.101164219259893+0.0034826213552199003i          6.101164219259893                                 875.9442381117905
6.10310627376103+0.0660344625589952i              6.10310627376103                                  46.21152378054501
6.106812895603724+0.003651097024744839i           6.106812895603724                                 836.298358303763
6.107259906606628+0.02481773477175909i            6.107259906606628                                 123.04225109126958
6.109392149127122+0.06777284855012697i            6.109392149127122                                 45.07256430728613
6.110289524485543+0.024362463168006956i           6.110289524485543                                 125.4037714156432
6.114777531343886+0.00316934304530159i            6.114777531343886                                 964.6758719301107
6.117232483529167+0.046705833878680346i           6.117232483529167                                 65.48681369675191
6.118087665571889+0.015250127494455413i           6.118087665571889                                 200.59136121308762
6.119620926815582+0.0032097409810630754i          6.119620926815582                                 953.288904450593
6.120175910433009+0.015810515784145104i           6.120175910433009                                 193.54763607934802
6.121440853746564+0.0446746053155884i             6.121440853746564                                 68.5114150478079
6.124031080802764+0.014658371657409382i           6.124031080802764                                 208.89192960622074
6.12453512069087+0.052258437738748796i            6.12453512069087                                  58.59852863674132
6.125554609209866+0.05376149032368547i            6.125554609209866                                 56.96972472609411
6.1266928823971964+0.014509584223371758i          6.1266928823971964                                211.125721732551
6.133795666213233+0.0059657448809541215i          6.133795666213233                                 514.0846439642114
6.1390371917449205+0.009422455964345013i          6.1390371917449205                                325.76629781955506
6.140148129538144+0.028416884652813765i           6.140148129538144                                 108.03696824187521
6.140165788594263+0.07487341600834685i            6.140165788594263                                 41.00364398967559
6.141748342194042+0.006490115416366917i           6.141748342194042                                 473.1617196441257
6.143686841141798+0.010115882333967874i           6.143686841141798                                 303.66539656714184
6.144457201424557+0.02884916152470009i            6.144457201424557                                 106.4928212240032
6.144759042784046+0.12199264074200566i            6.144759042784046                                 25.1849579015967
6.1467279827967625+0.02969141448463279i           6.1467279827967625                                103.51019123689927
6.147087791878343+0.0743652295488555i             6.147087791878343                                 41.330389411626236
6.148272642986871+0.01679365444675265i            6.148272642986871                                 183.05344624307634
6.148694496176458+0.12371416559230695i            6.148694496176458                                 24.85040604177509
6.149445350994019+0.005730088251878637i           6.149445350994019                                 536.5925515176747
6.149464449974443+0.028123441755472444i           6.149464449974443                                 109.32986978341368
6.15118300789984+0.0035109592868894026i           6.15118300789984                                  875.9974846289933
6.15211883614334+0.005511772294593449i            6.15211883614334                                  558.0889872916206
6.154181216282519+0.051414551475495215i           6.154181216282519                                 59.8486327281847
6.155379027065195+0.016972265643004247i           6.155379027065195                                 181.33639776025908
6.15573259607412+0.0469333469187193i              6.15573259607412                                  65.57951861748555
6.156355021834761+0.07707447645395436i            6.156355021834761                                 39.93770249943037
6.157365456196324+0.0034668410398928434i          6.157365456196324                                 888.0368879541477
6.170257687269615+0.1126743136268496i             6.170257687269615                                 27.380941976287666
6.1730193603569985+0.0034748517440675434i         6.1730193603569985                                888.2421200984926
6.173741232838625+0.003459622717107233i           6.173741232838625                                 892.256430493208
6.174694244684016+0.01450315662229829i            6.174694244684016                                 212.87414890047305
6.176008908685651+0.0034195492992387527i          6.176008908685651                                 903.0442856987805
6.17716925049324+0.0034974481130612507i           6.17716925049324                                  883.0966251399909
6.177505529771929+0.03774983142020808i            6.177505529771929                                 81.82163068501825
6.177574205946871+0.003568187023726223i           6.177574205946871                                 865.6460780880947
6.178802835797862+0.014558152516386157i           6.178802835797862                                 212.21109027547328
6.183135785567868+0.03789177083626876i            6.183135785567868                                 81.58942758686766
6.183345988292753+0.0035499227836139945i          6.183345988292753                                 870.9127444735299
6.183669243053071+0.003430708421165732i           6.183669243053071                                 901.2233748725142
6.185582281161803+0.027027143555526847i           6.185582281161803                                 114.43277881833167
6.185833839571305+0.0033489554789667905i          6.185833839571305                                 923.54674142753
6.186674564149811+0.028126424913522144i           6.186674564149811                                 109.97975361553125
6.1897855262611925+0.11574997425686283i           6.1897855262611925                                26.73774040124333
6.190466989237015+0.1112018094498592i             6.190466989237015                                 27.834380662790792
6.193229926616565+0.003316274177543123i           6.193229926616565                                 933.7632528328595
6.197470304634841+0.03493850578372484i            6.197470304634841                                 88.69111837521349
6.200384993593074+0.03421426527130048i            6.200384993593074                                 90.61110832612361
6.201463877258995+0.013823811308870445i           6.201463877258995                                 224.30369377508964
6.205441412740247+0.014021478549028302i           6.205441412740247                                 221.283418543984
6.207930077744661+0.003493752019077198i           6.207930077744661                                 888.4331291756014
6.208252438585913+0.02077587903692198i            6.208252438585913                                 149.41010263760393
6.21197000759522+0.0035400793085219925i           6.21197000759522                                  877.3772373744871
6.213323017440029+0.02013353780274641i            6.213323017440029                                 154.30281250899856
6.2148044191429666+0.0035169170372626114i         6.2148044191429666                                883.55857606187
6.219189772846903+0.0032461583417703306i          6.219189772846903                                 957.9307473730925
6.219828941197542+0.0032651828738464125i          6.219828941197542                                 952.447256632602
6.224570072637061+0.12681738316370872i            6.224570072637061                                 24.541470251762547
6.227025119274411+0.12582793130622794i            6.227025119274411                                 24.744208438584568
6.228079892537379+0.003242713270504841i           6.228079892537379                                 960.3192408633406
6.2310724593399485+0.018600418694187743i          6.2310724593399485                                167.49817737401347
6.23257780488949+0.003254328946399174i            6.23257780488949                                  957.5826395462675
6.2379611464211555+0.019266670854481773i          6.2379611464211555                                161.88476965054122
6.238536254694924+0.028171301570957475i           6.238536254694924                                 110.72502700987008
6.24530622912068+0.027634454958458118i            6.24530622912068                                  112.99854182955707
6.260693441869221+0.02017547855061497i            6.260693441869221                                 155.1560084724332
6.261011234642791+0.018498284532537414i           6.261011234642791                                 169.2322124148873
6.263017658419937+0.018425470697628756i           6.263017658419937                                 169.9554318367006
6.265758905945742+0.020781092194275166i           6.265758905945742                                 150.7562462879562
6.270947381445405+0.010365197198689377i           6.270947381445405                                 302.5001483926582
6.274808327025735+0.009793152728650247i           6.274808327025735                                 320.3671228708882
6.293195092385584+0.0033584732409146336i          6.293195092385584                                 936.913091299742
6.294363648889071+0.25832454402435046i            6.294363648889071                                 12.183053826073422
6.295574384634675+0.25486641763650275i            6.295574384634675                                 12.350733460721353
6.295833956674468+0.005461019752004669i           6.295833956674468                                 576.433911849829
6.296766551348301+0.25556982656192356i            6.296766551348301                                 12.31907270912245
6.297671096079268+0.2526594543359911i             6.297671096079268                                 12.462765568440815
6.298164079294209+0.003769203672561957i           6.298164079294209                                 835.4767513814526
6.300012786759357+0.03605849863785563i            6.300012786759357                                 87.35822378563142
6.30162313751716+0.004813364547867668i            6.30162313751716                                  654.5964963643564
6.304167939199347+0.004808323128843465i           6.304167939199347                                 655.547450771645
6.304268575788397+0.03669928206581878i            6.304268575788397                                 85.89089787208819
6.309063640893246+0.07822431668052711i            6.309063640893246                                 40.326741789639705
6.310806093239249+0.06670088580821462i            6.310806093239249                                 47.30676374662205
6.311463629309324+0.004592708925086217i           6.311463629309324                                 687.1177481807038
6.3131051995217735+0.056138714106081386i          6.3131051995217735                                56.227732501962386
6.3133587294345785+0.003960602118500005i          6.3133587294345785                                797.0200667147084
6.3140028767421335+0.06796285551510642i           6.3140028767421335                                46.45186572052355
6.314888261107739+0.0037592841027470937i          6.314888261107739                                 839.9056959399716
6.317089930912881+0.22510277336204232i            6.317089930912881                                 14.031568417757427
6.317769142830304+0.05698831976672939i            6.317769142830304                                 55.43038616238261
6.3205908288365285+0.07798909998088951i           6.3205908288365285                                40.52227061464569
6.32166686788161+0.005545379009788338i            6.32166686788161                                  569.9941209359197
6.322666422118127+0.22967260998698602i            6.322666422118127                                 13.764519901777556
6.323608313330671+0.0035780117428300703i          6.323608313330671                                 883.6762939644433
6.32449407975546+0.005753344455542446i            6.32449407975546                                  549.6363140279911
6.327834415071554+0.02371944296552652i            6.327834415071554                                 133.38918675848194
6.328423051416775+0.003724353007267974i           6.328423051416775                                 849.600325085596
6.329268905978426+0.0036448229658757997i          6.329268905978426                                 868.2546402439045
6.330104345831906+0.13253202761963026i            6.330104345831906                                 23.88141364591297
6.330811979419306+0.0038840711406224046i          6.330811979419306                                 814.9711668778579
6.331894489946911+0.022693889226362857i           6.331894489946911                                 139.5065963966927
6.333495273513849+0.0040916922863121746i          6.333495273513849                                 773.9456965888071
6.333644445727757+0.0036124991399269133i          6.333644445727757                                 876.6291977381478
6.335999011978424+0.13239535304426467i            6.335999011978424                                 23.928328548888206
6.341443310670529+0.004091438390695689i           6.341443310670529                                 774.9650251475814
6.342624171292591+0.022873687690451464i           6.342624171292591                                 138.64454776875124
6.343000919158554+0.004224699166902321i           6.343000919158554                                 750.7044488340973
6.345870973376444+0.023297138688111833i           6.345870973376444                                 136.1942137687201
6.355187254342873+0.009307171741442148i           6.355187254342873                                 341.4134514164523
6.355864306738506+0.05176410349431236i            6.355864306738506                                 61.39258557271124
6.356602507990431+0.014954108625258172i           6.356602507990431                                 212.53699124713586
6.358778318641635+0.01644767254076924i            6.358778318641635                                 193.30328661638842
6.361730833163641+0.01133168711546944i            6.361730833163641                                 280.70536930369934
6.362496102881951+0.00855404168545532i            6.362496102881951                                 371.89999399349927
6.3648891116256445+0.05331985403894071i           6.3648891116256445                                59.68592024818017
6.365066623955709+0.011163110926491724i           6.365066623955709                                 285.09376399953436
6.3670883224854835+0.0054802783761868255i         6.3670883224854835                                580.9092061958082
6.369732700739368+0.0038771846070867044i          6.369732700739368                                 821.4378919560334
6.372247035171909+0.005627019892256267i           6.372247035171909                                 566.2186341247168
6.372539672257865+0.021067804742003884i           6.372539672257865                                 151.23881558368134
6.374834382072851+0.0035231432321666573i          6.374834382072851                                 904.7083757296555
6.3769958689022666+0.061108293482082854i          6.3769958689022666                                52.177826490703936
6.378647793683687+0.0610824609166384i             6.378647793683687                                 52.21341525834129
6.379944918337404+0.003560710871099615i           6.379944918337404                                 895.8807874742097
6.380942714747856+0.02182057384479843i            6.380942714747856                                 146.21390711658438
6.381258751846221+0.003677887625757099i           6.381258751846221                                 867.5168195945939
6.385063558712043+0.0037652187915412105i          6.385063558712043                                 847.9007346208498
6.38704540948521+0.0037359170588495846i           6.38704540948521                                  854.8162752108846
6.3887882508725555+0.06147785766294567i           6.3887882508725555                                51.96007549497977
6.389330964941109+0.0632118506143179i             6.389330964941109                                 50.539027910487114
6.3912786764286125+0.0038659442040719i            6.3912786764286125                                826.6128970119178
6.391389864389911+0.02628652120398291i            6.391389864389911                                 121.57161867850154
6.3914053069679575+0.0159983423659838i            6.3914053069679575                                199.75211058608085
6.391602726681535+0.031694486320148034i           6.391602726681535                                 100.83146106422971
6.393625956093635+0.0035408766662057764i          6.393625956093635                                 902.8309312654935
6.3947088402635055+0.021943626817051132i          6.3947088402635055                                145.7076556573261
6.396387295049949+0.031228520680220657i           6.396387295049949                                 102.4125888086216
6.396628396743321+0.014430253496000581i           6.396628396743321                                 221.6395019850545
6.398481858181445+0.02616698879474584i            6.398481858181445                                 122.26247942342947
6.403882640962597+0.003685091477438804i           6.403882640962597                                 868.8905933772635
6.410047154017127+0.0038070521975134045i          6.410047154017127                                 841.8648893498074
6.4103488141904155+0.027972469739945216i          6.4103488141904155                                114.58317541829916
6.412261338693185+0.0038900274914585664i          6.412261338693185                                 824.1922907707916
6.412788572357831+0.00359885562098043i            6.412788572357831                                 890.9482968659363
6.418877204911221+0.003758739200097144i           6.418877204911221                                 853.8604121224115
6.421253797176918+0.003561389813408294i           6.421253797176918                                 901.5095417246251
6.421907934548807+0.011924375852092677i           6.421907934548807                                 269.2764809749682
6.422204932330604+0.05874874667036392i            6.422204932330604                                 54.65822929266264
6.424963431791527+0.012190896179484871i           6.424963431791527                                 263.5148120859075
6.426720841968537+0.003463799365005254i           6.426720841968537                                 927.6981956428629
6.429357393354578+0.06084417314390235i            6.429357393354578                                 52.83461883974103
6.432668157860364+0.0033792520214136375i          6.432668157860364                                 951.7887563723933
6.433656091289311+0.06952882317228667i            6.433656091289311                                 46.266108052391765
6.4339720383053844+0.06651648875765881i           6.4339720383053844                                48.363737762424854
6.435933966298741+0.06473869890413039i            6.435933966298741                                 49.70700736378347
6.4389565929280295+0.0034522038073714974i         6.4389565929280295                                932.5863929555538
6.441076494283356+0.07242669792236209i            6.441076494283356                                 44.4661753127823
6.443382632275017+0.0034852074579022675i          6.443382632275017                                 924.3901130857307
6.444753936721919+0.05947943290088791i            6.444753936721919                                 54.17632299437839
6.45058650762094+0.011455030059752286i            6.45058650762094                                  281.56130861172244
6.454126163209541+0.010250518987164808i           6.454126163209541                                 314.819482374067
6.455006639438887+0.011555686424748688i           6.455006639438887                                 279.3000087651336
6.460049013926325+0.011365357984733569i           6.460049013926325                                 284.1990996941643
6.466211428702785+0.0048383626772521065i          6.466211428702785                                 668.2231014950698
6.467092640704481+0.07101094354022268i            6.467092640704481                                 45.53588727518689
6.470014163124545+0.07222558766240744i            6.470014163124545                                 44.790318587411846
6.470959423462454+0.042567635124030286i           6.470959423462454                                 76.00797418752383
6.471107315029446+0.010996063026337734i           6.471107315029446                                 294.24655440451147
6.473465576276577+0.022216450927178902i           6.473465576276577                                 145.69081257612447
6.476466594349584+0.043602894634484704i           6.476466594349584                                 74.26647529528314
6.477421440255332+0.02151190427988882i            6.477421440255332                                 150.5543478619646
6.480431924542716+0.020160574927270424i           6.480431924542716                                 160.72041466875254
6.482710180467671+0.005190723619572879i           6.482710180467671                                 624.4514884228323
6.484054594302876+0.019874496904109223i           6.484054594302876                                 163.12499948016904
6.488217937975195+0.013758976600590235i           6.488217937975195                                 235.78126943310824
6.488343890936267+0.02884296210018477i            6.488343890936267                                 112.477072715335
6.490467374524305+0.01957631228541494i            6.490467374524305                                 165.7734940037695
6.490852789297827+0.02865271048793221i            6.490852789297827                                 113.26769228397445
6.491170561834579+0.040576172482972656i           6.491170561834579                                 79.98746757790582
6.491671892261191+0.02227837121644294i            6.491671892261191                                 145.69449061585573
6.492320505277833+0.12675809627458892i            6.492320505277833                                 25.60909597132906
6.494086940466441+0.13210014629610087i            6.494086940466441                                 24.580165588575593
6.497002439234758+0.013015841942687158i           6.497002439234758                                 249.5805675823009
6.501655868630636+0.0211412942651608i             6.501655868630636                                 153.76674169246246
6.502420982464926+0.011463505556628496i           6.502420982464926                                 283.6139848471159
6.504783083690764+0.010313460084050973i           6.504783083690764                                 315.35406307287434
6.5055745062051935+0.020673845267382984i          6.5055745062051935                                157.3382798909936
6.509392694816595+0.004093318315263872i           6.509392694816595                                 795.1241747487911
6.510315421137251+0.003816235239624651i           6.510315421137251                                 852.9761679179895
6.51435494406146+0.004423809172848162i            6.51435494406146                                  736.283448215212
6.515418693806609+0.0034877543179095646i          6.515418693806609                                 934.0420941277363
6.516756226878621+0.0037896493076270783i          6.516756226878621                                 859.8099319853878
6.521631510601858+0.0037195060517665655i          6.521631510601858                                 876.6797821856525
6.5242221971825245+0.0038654571008749526i         6.5242221971825245                                843.9134139796502
6.524906783847346+0.003848741275584591i           6.524906783847346                                 847.6676290557187
6.525988154066485+0.12234830085093909i            6.525988154066485                                 26.669713059674233
6.535177005940034+0.08669692105644522i            6.535177005940034                                 37.68978717067252
6.535688883299528+0.004540604015081517i           6.535688883299528                                 719.693774395585
6.541794708236326+0.08913747341682962i            6.541794708236326                                 36.694974949790314
6.548731015202189+0.0044045717201553515i          6.548731015202189                                 743.401564473925
6.548731523797037+0.01265821767439582i            6.548731523797037                                 258.67510309304305
6.554376267534694+0.02257236256732607i            6.554376267534694                                 145.18587161589988
6.555326171518191+0.0040235042330844266i          6.555326171518191                                 814.6289641769388
6.556689862057283+0.024578252835143772i           6.556689862057283                                 133.38396968319188
6.558220073654022+0.00424091471000082i            6.558220073654022                                 773.2082017811615
6.559871203845889+0.021656697113528467i           6.559871203845889                                 151.45133095452678
6.561048596005613+0.004703689298795289i           6.561048596005613                                 697.4364354471746
6.5612967599024765+0.0098722252192284i            6.5612967599024765                                332.3109336648268
6.562713406697413+0.004260247946849587i           6.562713406697413                                 770.2266967290575
